# vtk DataFile Version 2.0
Results
ASCII
DATASET UNSTRUCTURED_GRID
POINTS         27           float
0.0	0.0	0.0	
50.0	0.0	0.0	
100.0	0.0	0.0	
0.0	40.0	0.0	
50.0	40.0	0.0	
100.0	40.0	0.0	
0.0	80.0	0.0	
50.0	80.0	0.0	
100.0	80.0	0.0	
0.0	0.0	70.0	
50.0	0.0	70.0	
100.0	0.0	70.0	
0.0	40.0	70.0	
50.0	40.0	70.0	
100.0	40.0	70.0	
0.0	80.0	70.0	
50.0	80.0	70.0	
100.0	80.0	70.0	
0.0	0.0	140.0	
50.0	0.0	140.0	
100.0	0.0	140.0	
0.0	40.0	140.0	
50.0	40.0	140.0	
100.0	40.0	140.0	
0.0	80.0	140.0	
50.0	80.0	140.0	
100.0	80.0	140.0	

CELLS	8	72
 8	0	1	4	3	9	10	13	12	
 8	1	2	5	4	10	11	14	13	
 8	4	5	8	7	13	14	17	16	
 8	3	4	7	6	12	13	16	15	
 8	9	10	13	12	18	19	22	21	
 8	10	11	14	13	19	20	23	22	
 8	13	14	17	16	22	23	26	25	
 8	12	13	16	15	21	22	25	24	

CELL_TYPES	8
 12
 12
 12
 12
 12
 12
 12
 12

POINT_DATA	27
VECTORS	u 	float 
0.0	0.0	0.0
-0.0019068409	0.0	0.0
-0.0034930521	0.0	0.0
0.0	-0.0033711162	0.0
-0.0019118645	-0.00339449	0.0
-0.0040537015	-0.0032623748	0.0
0.0	-0.0061004792	0.0
-0.0020131265	-0.0073279808	0.0
-0.003924913	-0.00598457	0.0
-0.0262457105	-0.023547604	0.0053395204
-0.0018748069	-0.0226615602	0.0173928963
0.0224198845	-0.0233914395	0.0053467042
-0.026223289	-0.0034150195	0.0138510688
-0.0019428184	-0.0033805891	0.025981413
0.0223943265	-0.0032840507	0.0138389146
-0.0262951412	0.0165679619	0.0053846873
-0.0019844912	0.0160442383	0.0174269064
0.0222991481	0.0166999305	0.0053709253
-0.0615093905	-0.0523851711	0.0639473881
-0.0018833387	-0.0525706425	0.0766631368
0.0577786522	-0.052262273	0.0639310306
-0.0617032213	-0.0034717144	0.0721899838
-0.0019269317	-0.0033852383	0.0851334629
0.057823036	-0.003336287	0.0721891178
-0.0616426638	0.0455120138	0.0639645393
-0.0019842486	0.0457330875	0.0767145739
0.0576860003	0.0456443251	0.0639572762

VECTORS	v 	float 
0.0	0.0	0.0
6.89254e-05	0.0	0.0
0.0001318064	0.0	0.0
0.0	6.43658e-05	0.0
6.0872e-05	5.78785e-05	0.0
0.0001267248	6.39088e-05	0.0
0.0	0.000120195	0.0
7.19698e-05	0.0001224549	0.0
0.0001405547	0.0001195083	0.0
4.5662e-05	5.75157e-05	0.0001001649
6.38553e-05	4.19301e-05	4.3514e-05
8.37443e-05	5.49624e-05	9.98287e-05
3.87033e-05	6.16198e-05	6.53751e-05
6.69428e-05	6.24552e-05	9.4897e-06
9.35328e-05	5.94295e-05	6.57011e-05
4.64911e-05	6.79409e-05	9.93058e-05
6.53632e-05	8.09158e-05	4.13288e-05
8.51439e-05	6.60541e-05	9.91318e-05
0.0001724885	0.0001429531	4.29423e-05
6.54609e-05	0.0001341513	-3.34319e-05
-4.22128e-05	0.0001414342	4.21432e-05
0.0001573852	6.40238e-05	-1.3548e-06
6.51645e-05	6.23568e-05	-7.63013e-05
-2.63166e-05	6.21958e-05	-4.954e-07
0.0001746602	-1.55642e-05	4.11956e-05
6.68303e-05	-8.6556e-06	-3.44705e-05
-4.1197e-05	-1.76521e-05	4.0385e-05

VECTORS	a 	float 
0.0	0.0	0.0
0.8942176566	0.0	0.0
1.7843913027	0.0	0.0
0.0	0.722433006	0.0
0.8843388185	0.7124119643	0.0
1.7720895056	0.7222575292	0.0
0.0	1.4388669527	0.0
0.8969377433	1.4293622966	0.0
1.7914967131	1.4385014771	0.0
-0.0069188808	0.008974561	-3.069178344
0.8880773024	-0.0030076658	-3.0866321282
1.7843192052	0.0068747572	-3.0697136072
-0.0147366678	0.7174414243	-3.0773166194
0.8913261194	0.7188803565	-3.0920984425
1.7961268835	0.7155913222	-3.076837615
-0.0060977159	1.4275242801	-3.0700228757
0.8893052085	1.4393148554	-3.0884067705
1.7854218551	1.4259288427	-3.0703883307
-0.0036401626	-0.0022167694	-6.1574857736
0.8898120548	-0.0167009145	-6.1921723263
1.7828556901	-0.0036887397	-6.1585612418
-0.0255675973	0.7200233265	-6.1768000652
0.8893883553	0.7183453408	-6.2069906402
1.8048633792	0.7183153721	-6.1757482127
-0.0016936211	1.4418864403	-6.1592673224
0.8911684717	1.453861093	-6.1927908478
1.7839301387	1.4399465294	-6.1602408002

SCALARS	theta	float 1
LOOKUP_TABLE	default
299.2303181879
299.278359937
299.2332188281
299.2529744901
299.2964135585
299.2529165891
299.2338446451
299.273967721
299.2336939249
305.0977607154
305.1230361089
305.0974723096
305.1091307661
305.1352696589
305.1092493953
305.0968159814
305.1233252642
305.0968231189
311.7537700457
311.7651696219
311.7536792234
311.7566836505
311.7681457424
311.7566164703
311.7539884856
311.7652069465
311.7540001366

SCALARS	sig_11	float	1
LOOKUP_TABLE	default
14.4263232489
23.8207304418
15.2514031257
21.5305243906
29.8070908556
21.136062839
14.7690430975
22.6994249254
14.8363647017
-7.0728989416
-3.1617751805
-7.13223419
-3.977927466
0.0610164684
-3.9549939406
-7.3040238582
-3.2802298745
-7.3162329087
-15.2206050749
-14.9712870438
-15.2032927746
-15.2742950538
-14.9985380481
-15.2800150804
-15.178826345
-14.9574790718
-15.1727689715

SCALARS	sig_22	float	1
LOOKUP_TABLE	default
9.2699648605
18.0167774844
9.915325248
16.9600230536
24.0883965982
16.9538378969
10.8135507498
16.6060511293
10.8586090831
-6.0402080487
-3.3654897377
-6.0888590853
-2.842007805
-0.0022912952
-2.8404324447
-6.176982817
-3.2841600967
-6.1790608394
-10.9975860782
-10.8014269741
-10.9855119046
-11.158974679
-10.9546866887
-11.1538080266
-10.9461182861
-10.8330502157
-10.947036526

SCALARS	sig_33	float	1
LOOKUP_TABLE	default
23.6041232473
46.6809904628
24.0252516152
40.6293326662
62.9575405355
40.4833445773
24.2487625983
46.0314657449
24.2535643403
-9.5333182853
1.7166719515
-9.5815995256
-1.5539314074
9.8701940851
-1.5517591031
-9.6106198147
1.7598475919
-9.6214850447
-43.8577880777
-42.8545123159
-43.8806555772
-44.3380385002
-43.1972410257
-44.3233423202
-43.8668567767
-42.8388873813
-43.8482430978

SCALARS vonMises	float	1
LOOKUP_TABLE	default
61.7285668489
46.3384468875
61.2995860456
49.9967712403
32.8267161479
50.2145112862
61.191251216
47.3414307077
61.2453612658
41.985145561
38.3159233547
41.9032403095
39.9775733068
37.2320622191
40.0165218251
41.8809474389
38.4676439362
41.8885404828
44.7503940808
44.7789543945
44.8368502315
44.9620337493
44.9381100921
44.9293845082
44.8949559894
44.7197933483
44.8883010037
