# vtk DataFile Version 2.0
Results
ASCII
DATASET UNSTRUCTURED_GRID
POINTS         27           float
0.0	0.0	0.0	
50.0	0.0	0.0	
100.0	0.0	0.0	
0.0	40.0	0.0	
50.0	40.0	0.0	
100.0	40.0	0.0	
0.0	80.0	0.0	
50.0	80.0	0.0	
100.0	80.0	0.0	
0.0	0.0	70.0	
50.0	0.0	70.0	
100.0	0.0	70.0	
0.0	40.0	70.0	
50.0	40.0	70.0	
100.0	40.0	70.0	
0.0	80.0	70.0	
50.0	80.0	70.0	
100.0	80.0	70.0	
0.0	0.0	140.0	
50.0	0.0	140.0	
100.0	0.0	140.0	
0.0	40.0	140.0	
50.0	40.0	140.0	
100.0	40.0	140.0	
0.0	80.0	140.0	
50.0	80.0	140.0	
100.0	80.0	140.0	

CELLS	8	72
 8	0	1	4	3	9	10	13	12	
 8	1	2	5	4	10	11	14	13	
 8	4	5	8	7	13	14	17	16	
 8	3	4	7	6	12	13	16	15	
 8	9	10	13	12	18	19	22	21	
 8	10	11	14	13	19	20	23	22	
 8	13	14	17	16	22	23	26	25	
 8	12	13	16	15	21	22	25	24	

CELL_TYPES	8
 12
 12
 12
 12
 12
 12
 12
 12

POINT_DATA	27
VECTORS	u 	float 
0.0	0.0	0.0
0.0045795799	0.0	0.0
0.0091933787	0.0	0.0
0.0	0.0083409879	0.0
0.0045012875	0.0082935987	0.0
0.0089790474	0.0085363809	0.0
0.0	0.0174818455	0.0
0.004378369	0.015943615	0.0
0.0085784021	0.0178010998	0.0
0.0204093927	0.0254914294	-0.0208964772
0.0045878315	0.0289413576	-0.0077356223
-0.0112483358	0.025754849	-0.0209231788
0.0205100686	0.0082467718	-0.0130932592
0.0044931528	0.0083281757	-0.0004050135
-0.0115234533	0.0084813281	-0.0131515209
0.0202840434	-0.0091872521	-0.0208247455
0.004396555	-0.0120961885	-0.0076470382
-0.011451763	-0.0089563607	-0.0208651066
-0.0800203783	-0.0688163554	-0.0073679133
0.0046157983	-0.064582452	0.033102792
0.0892651746	-0.0685895243	-0.0074187717
-0.0792238302	0.0081500959	0.0251328418
0.0045247887	0.0082925845	0.0653667322
0.0882719775	0.0083870105	0.0250991793
-0.0802427161	0.0852053686	-0.0073036796
0.0044339298	0.0810770458	0.0331940104
0.0890956805	0.0854350006	-0.0073480224

VECTORS	v 	float 
0.0	0.0	0.0
-0.0022824317	0.0	0.0
-0.0045601743	0.0	0.0
0.0	-0.0017702336	0.0
-0.0022774772	-0.0017683023	0.0
-0.0045583521	-0.0017675847	0.0
0.0	-0.0035233797	0.0
-0.0022874568	-0.003550282	0.0
-0.0045746037	-0.0035196325	0.0
0.0001216855	0.0002116916	0.007382127
-0.0022786607	0.0002645162	0.0076485792
-0.0046804525	0.0002167989	0.0073821615
0.0001252399	-0.0017707098	0.0075415822
-0.0022820653	-0.0017697769	0.0078037662
-0.0046883503	-0.0017661979	0.0075408884
0.0001194103	-0.0037571751	0.0073835442
-0.0022820748	-0.0038002219	0.0076510897
-0.0046838556	-0.0037527617	0.007383271
-0.0014714318	-0.0012582225	0.0155250464
-0.0022794247	-0.0012069973	0.0162168475
-0.0030868851	-0.0012538861	0.015525234
-0.0014562303	-0.0017733346	0.0160590204
-0.0022805808	-0.0017704551	0.0167487782
-0.0031052439	-0.0017686506	0.016057997
-0.0014760182	-0.0022867342	0.0155265403
-0.0022831146	-0.002335614	0.0162189959
-0.0030902963	-0.0022820324	0.0155268876

VECTORS	a 	float 
0.0	0.0	0.0
-0.4436460178	0.0	0.0
-0.8871325067	0.0	0.0
0.0	-0.35527027	0.0
-0.4432796422	-0.3549898978	0.0
-0.8866908987	-0.3552918489	0.0
0.0	-0.7103701172	0.0
-0.4437541012	-0.7101004623	0.0
-0.8873821026	-0.7104097077	0.0
-0.0024499206	-0.0027381654	1.5254529234
-0.4434278615	-0.0025095874	1.5256974841
-0.8844552278	-0.0026805466	1.5254723769
-0.0022211218	-0.3551391641	1.5254556042
-0.4435419738	-0.3551813177	1.5257073391
-0.884814059	-0.3550864209	1.5254535525
-0.0024741512	-0.7075873728	1.5254713729
-0.4434556028	-0.7078150649	1.5257699073
-0.8844743141	-0.7075414397	1.5254886935
0.0043995161	0.0036815789	3.048933087
-0.4434961438	0.0038478557	3.048604342
-0.8913808783	0.0037185027	3.0489860737
0.0049681338	-0.3552178107	3.0481720426
-0.4434756905	-0.3551742308	3.0477498335
-0.8919346639	-0.3551731207	3.0481340234
0.0043443664	-0.714111512	3.0489916191
-0.4435345307	-0.7142034475	3.048625669
-0.8914096295	-0.7140576452	3.0490424911

SCALARS	theta	float 1
LOOKUP_TABLE	default
302.6654911389
302.4145115749
302.6524079195
302.5670954604
302.3517841831
302.5629013471
302.6354990136
302.4481551812
302.6395527658
295.5116230477
295.1675876329
295.5138413375
295.268055165
294.9193371783
295.2686923725
295.5186176338
295.1632535751
295.5179367296
318.1679878564
317.6343747029
318.1678284588
317.7517205864
317.2178885154
317.7512943046
318.1658277852
317.6352298456
318.1661144468

SCALARS	sig_11	float	1
LOOKUP_TABLE	default
-65.8513408839
-48.6912719276
-65.2054346799
-55.6820799857
-40.1098204142
-55.5190754504
-65.16606284
-50.7639232357
-65.6162902558
43.3185250946
65.729367912
43.2717937819
63.0909826954
85.5057967611
63.0757557729
42.9898838243
65.5623701342
43.0073740092
-105.9497591761
-75.1389773422
-105.9511648468
-76.6830761754
-45.8024364505
-76.6699440255
-105.8696554438
-75.1133931267
-105.8867555245

SCALARS	sig_22	float	1
LOOKUP_TABLE	default
-57.1183393959
-41.7116457029
-56.0931856801
-46.0625482946
-33.1872185909
-45.4658640958
-54.7915014093
-43.984402609
-54.652320543
33.5845797015
49.7126688785
33.5648431704
53.961484411
70.1761166622
53.9771227782
33.3804231269
49.8265419046
33.4234121648
-85.9860885822
-63.2998673015
-86.0001052313
-55.3035165086
-32.5802010446
-55.2988219405
-85.9014057561
-63.343599067
-85.9334268534

SCALARS	sig_33	float	1
LOOKUP_TABLE	default
-100.3321454161
-68.1220563721
-99.7867037386
-81.0034415627
-50.6008317656
-80.8452819025
-99.1068910454
-69.4665417642
-99.322361021
58.4942095815
104.0221230177
58.4226107344
97.4086046262
142.8454880486
97.3682331084
58.3956086612
104.0850824913
58.3672534669
-236.1465734662
-173.9897115913
-236.1820455147
-177.1514952963
-114.8205682141
-177.1123465963
-236.1080798863
-173.9842229575
-236.1150498945

SCALARS vonMises	float	1
LOOKUP_TABLE	default
92.1626046762
77.4965775145
92.6024578949
68.2521747546
42.9792515315
68.3494649466
93.3297632297
76.5879958457
93.191526596
159.9969695745
130.7471246486
160.238256164
126.3320218619
86.6211376542
126.3702595703
160.4753965628
130.1188683507
160.3900952712
162.3179966412
139.1379862424
162.3727277721
147.319755421
124.8407059904
147.3181473705
162.4935680693
139.0455592691
162.4498915765
