# vtk DataFile Version 2.0
Results
ASCII
DATASET UNSTRUCTURED_GRID
POINTS         27           float
0.0	0.0	0.0	
50.0	0.0	0.0	
100.0	0.0	0.0	
0.0	40.0	0.0	
50.0	40.0	0.0	
100.0	40.0	0.0	
0.0	80.0	0.0	
50.0	80.0	0.0	
100.0	80.0	0.0	
0.0	0.0	70.0	
50.0	0.0	70.0	
100.0	0.0	70.0	
0.0	40.0	70.0	
50.0	40.0	70.0	
100.0	40.0	70.0	
0.0	80.0	70.0	
50.0	80.0	70.0	
100.0	80.0	70.0	
0.0	0.0	140.0	
50.0	0.0	140.0	
100.0	0.0	140.0	
0.0	40.0	140.0	
50.0	40.0	140.0	
100.0	40.0	140.0	
0.0	80.0	140.0	
50.0	80.0	140.0	
100.0	80.0	140.0	

CELLS	8	72
 8	0	1	4	3	9	10	13	12	
 8	1	2	5	4	10	11	14	13	
 8	4	5	8	7	13	14	17	16	
 8	3	4	7	6	12	13	16	15	
 8	9	10	13	12	18	19	22	21	
 8	10	11	14	13	19	20	23	22	
 8	13	14	17	16	22	23	26	25	
 8	12	13	16	15	21	22	25	24	

CELL_TYPES	8
 12
 12
 12
 12
 12
 12
 12
 12

POINT_DATA	27
VECTORS	u 	float 
0.0	0.0	0.0
0.0048183042	0.0	0.0
0.0096531473	0.0	0.0
0.0	0.0077125957	0.0
0.0047536821	0.0076612505	0.0
0.0094932976	0.0078657668	0.0
0.0	0.0160400122	0.0
0.0046569975	0.0148314265	0.0
0.0091680645	0.0162950107	0.0
0.0178976032	0.0217707805	-0.0167835486
0.0048224073	0.0245996523	-0.0068851158
-0.0082615509	0.0219785244	-0.0168063267
0.0180375119	0.0076290062	-0.0109586916
0.0047482973	0.0076963843	-0.0014623058
-0.0085418055	0.0078151565	-0.0110060512
0.0177975979	-0.0066586879	-0.0167285243
0.0046713989	-0.0090612501	-0.0068112872
-0.0084225782	-0.00647573	-0.016761062
-0.0603939812	-0.052030472	-0.0089126587
0.0048463493	-0.0484402004	0.0225704565
0.0700958335	-0.0518500443	-0.0089535115
-0.0596326254	0.0075537744	0.016472307
0.0047738011	0.0076651458	0.0477411823
0.069179485	0.007741278	0.0164445936
-0.0605701009	0.0672060411	-0.0088596917
0.0047018854	0.0637007671	0.0226426005
0.0699616841	0.0673877815	-0.0088958513

VECTORS	v 	float 
0.0	0.0	0.0
0.0022437607	0.0	0.0
0.0044867169	0.0	0.0
0.0	0.0018658355	0.0
0.0022433172	0.0018707476	0.0
0.0044875984	0.0018697343	0.0
0.0	0.0037450804	0.0
0.0022416017	0.0037302364	0.0
0.0044785769	0.0037513181	0.0
0.0002672778	0.0003632668	-0.0080136583
0.0022446201	0.0004083197	-0.0077772103
0.0042221022	0.0003674557	-0.0080139885
0.0002566452	0.0018679757	-0.0078711012
0.0022430634	0.0018682659	-0.0076428809
0.0042290634	0.0018715717	-0.0078724072
0.0002653411	0.0033695255	-0.0080122925
0.002241432	0.0033314749	-0.0077767736
0.0042186293	0.0033730713	-0.0080129166
-0.0015488272	-0.0013263971	-0.0152941551
0.0022449872	-0.0012726848	-0.0145933997
0.0060389929	-0.0013229383	-0.0152953305
-0.001552755	0.0018660644	-0.014730697
0.0022436599	0.0018687231	-0.0140337065
0.0060401397	0.0018697121	-0.0147311669
-0.0015521562	0.005060134	-0.0152933743
0.0022422976	0.0050084844	-0.0145923639
0.0060364356	0.0050636043	-0.0152944106

VECTORS	a 	float 
0.0	0.0	0.0
0.3271636311	0.0	0.0
0.6542414335	0.0	0.0
0.0	0.2620619955	0.0
0.326983499	0.2619161672	0.0
0.6540373468	0.2620785281	0.0
0.0	0.5240501968	0.0
0.3272159232	0.5238837566	0.0
0.6543589058	0.5240802242	0.0
0.0020486018	0.0023128039	-1.1251084686
0.3270578717	0.002289433	-1.124984676
0.6520936662	0.0022888195	-1.1251196742
0.0019360937	0.2619922552	-1.1249820269
0.3271127421	0.2620165845	-1.1248774041
0.652263186	0.2619703535	-1.1249830748
0.0020580548	0.5216932955	-1.1251181175
0.3270677713	0.5217270416	-1.1250193614
0.6520985842	0.5216748649	-1.1251280484
-0.0040309045	-0.003416396	-2.2485926041
0.3270928229	-0.0033546719	-2.2474972289
0.6582109919	-0.0034300432	-2.2486227281
-0.004267691	0.2620316833	-2.2474747715
0.3270809354	0.2620118043	-2.2463367234
0.6584375177	0.2620139605	-2.2474554784
-0.0040072414	0.5274784519	-2.24862389
0.3271083934	0.527380314	-2.2475045829
0.6582217225	0.5274556004	-2.2486522914

SCALARS	theta	float 1
LOOKUP_TABLE	default
302.3654724686
302.144533094
302.3542583485
302.2805606698
302.0965372524
302.2763330424
302.334703041
302.1781499506
302.3390812054
296.3176656979
295.9911371319
296.3197973983
296.0623089606
295.7310297037
296.0630745796
296.3250061842
295.9860783936
296.324186928
314.1242169743
313.5968539076
314.1239505898
313.6746272106
313.1467673795
313.6740892133
314.1216351411
313.5982515339
314.1220486525

SCALARS	sig_11	float	1
LOOKUP_TABLE	default
-54.2333932337
-40.4417766062
-53.7346978879
-46.0469595806
-33.5984348471
-45.8868629764
-53.616836209
-42.153034002
-54.002455749
34.0737288304
52.8514350818
34.0354746401
51.0440790773
69.81452141
51.0289495648
33.8095174627
52.7247483463
33.8254780549
-86.0982312887
-59.6802978626
-86.099443378
-60.4649743369
-33.9821650434
-60.4520678868
-86.02843785
-59.6636798788
-86.0443432752

SCALARS	sig_22	float	1
LOOKUP_TABLE	default
-46.9278877158
-34.5604702203
-46.1112731373
-38.0350314442
-27.7419017031
-37.5313575276
-45.0384732238
-36.4063977267
-44.937990382
26.2732889149
39.9124048775
26.2566999851
43.7796907679
57.4767726358
43.7907489999
26.1073151797
40.0063814146
26.1434215619
-70.2561488555
-50.6270860306
-70.2681513033
-43.3785876607
-23.7095687563
-43.3728401467
-70.1846659648
-50.6650791192
-70.2128955673

SCALARS	sig_33	float	1
LOOKUP_TABLE	default
-84.9913725963
-59.9209304793
-84.5572879356
-69.9692322314
-46.4432786956
-69.8210908578
-83.9477206849
-61.056674306
-84.1401757711
43.8919336664
80.6597210344
43.8313025962
75.8938133231
112.5752671792
75.8580427193
43.8098534266
80.7139887695
43.7873521577
-190.9771053386
-139.7497885139
-191.0039335945
-141.6368492178
-90.2557215139
-141.6020392823
-190.9368626789
-139.7529343874
-190.9459210674

SCALARS vonMises	float	1
LOOKUP_TABLE	default
77.9662051142
65.1659660888
78.2997565405
58.1117835538
36.1698396727
58.1991210414
78.8563803417
64.4455321375
78.7437791325
127.8411631732
103.7164905287
128.0246635272
100.2365462451
67.0359867903
100.2725566733
128.2079506028
103.2240919669
128.1396141189
128.9451789501
109.8014589914
128.9848478326
116.3219053095
97.5385772159
116.3206514434
129.0814119251
109.7290323787
129.0465431797
