# vtk DataFile Version 2.0
Results
ASCII
DATASET UNSTRUCTURED_GRID
POINTS         27           float
0.0	0.0	0.0	
50.0	0.0	0.0	
100.0	0.0	0.0	
0.0	40.0	0.0	
50.0	40.0	0.0	
100.0	40.0	0.0	
0.0	80.0	0.0	
50.0	80.0	0.0	
100.0	80.0	0.0	
0.0	0.0	70.0	
50.0	0.0	70.0	
100.0	0.0	70.0	
0.0	40.0	70.0	
50.0	40.0	70.0	
100.0	40.0	70.0	
0.0	80.0	70.0	
50.0	80.0	70.0	
100.0	80.0	70.0	
0.0	0.0	140.0	
50.0	0.0	140.0	
100.0	0.0	140.0	
0.0	40.0	140.0	
50.0	40.0	140.0	
100.0	40.0	140.0	
0.0	80.0	140.0	
50.0	80.0	140.0	
100.0	80.0	140.0	

CELLS	8	72
 8	0	1	4	3	9	10	13	12	
 8	1	2	5	4	10	11	14	13	
 8	4	5	8	7	13	14	17	16	
 8	3	4	7	6	12	13	16	15	
 8	9	10	13	12	18	19	22	21	
 8	10	11	14	13	19	20	23	22	
 8	13	14	17	16	22	23	26	25	
 8	12	13	16	15	21	22	25	24	

CELL_TYPES	8
 12
 12
 12
 12
 12
 12
 12
 12

POINT_DATA	27
VECTORS	u 	float 
0.0	0.0	0.0
-0.0149112972	0.0	0.0
-0.0293702665	0.0	0.0
0.0	-0.0131374357	0.0
-0.014930889	-0.013171756	0.0
-0.0301822457	-0.0129549446	0.0
0.0	-0.0252429199	0.0
-0.0150912835	-0.0272058026	0.0
-0.0300679272	-0.0250300775	0.0
-0.0298910148	-0.0245732713	-0.0159176116
-0.0148646118	-0.0229606468	0.0038550763
5.11972e-05	-0.0243124692	-0.0159112638
-0.0297964376	-0.0132117002	-0.0023831995
-0.0149748692	-0.0131511527	0.0174526721
-7.54211e-05	-0.0129925275	-0.0024078179
-0.0299818385	-0.0020894223	-0.0158390868
-0.0150480658	-0.0031082838	0.003917989
-0.0001464445	-0.0018699114	-0.01586375
-0.1059605504	-0.0898973634	0.0492206638
-0.0148734986	-0.0898914416	0.0784093538
0.0762667085	-0.0896909345	0.0491901228
-0.1060040675	-0.013309579	0.0697953902
-0.0149484672	-0.0131658088	0.0992963059
0.0760706519	-0.0130831261	0.0697890468
-0.1061819647	0.0633911681	0.0492587189
-0.0150427212	0.0634510782	0.0785004711
0.0761106979	0.063612092	0.0492419704

VECTORS	v 	float 
0.0	0.0	0.0
3.16929e-05	0.0	0.0
6.62839e-05	0.0	0.0
0.0	-6.3762e-06	0.0
3.59828e-05	-1.3244e-06	0.0
6.94269e-05	-6.8126e-06	0.0
0.0	-1.12696e-05	0.0
3.06752e-05	-3.6953e-06	0.0
6.36719e-05	-1.19238e-05	0.0
-8.2603e-05	-0.0001283724	0.0001175393
3.42538e-05	-0.0001311052	8.17659e-05
0.0001502891	-0.0001278685	0.0001178583
-7.87088e-05	-3.6955e-06	9.84658e-05
3.2931e-05	-4.7116e-06	6.25433e-05
0.0001454732	-3.2531e-06	9.84135e-05
-8.26506e-05	0.0001204692	0.0001179234
3.40521e-05	0.0001221078	8.25404e-05
0.0001501471	0.0001207549	0.0001181462
0.0003000903	0.0002508533	0.0001741774
3.33689e-05	0.0002455852	4.8454e-06
-0.0002330853	0.0002509924	0.0001748872
0.0003053865	-4.8742e-06	3.70009e-05
3.37917e-05	-4.2997e-06	-0.0001342067
-0.000238199	-4.6196e-06	3.65495e-05
0.0002996113	-0.0002606113	0.0001752227
3.31838e-05	-0.000254245	4.8297e-06
-0.0002331054	-0.0002601821	0.0001758259

VECTORS	a 	float 
0.0	0.0	0.0
-0.8969540343	0.0	0.0
-1.7930261959	0.0	0.0
0.0	-0.7182548445	0.0
-0.8927717901	-0.7134393457	0.0
-1.7862932029	-0.7181566305	0.0
0.0	-1.4346485906	0.0
-0.8979198248	-1.4282452415	0.0
-1.7953965442	-1.4344563258	0.0
-0.0025443458	-0.0029154732	3.0787857205
-0.8943718603	0.0011694042	3.08307283
-1.7865053914	-0.002194356	3.0790235574
-0.0002159423	-0.7157270743	3.0800482122
-0.89565584	-0.7164481531	3.0827189328
-1.7907711011	-0.7150837483	3.0797994236
-0.0028712752	-1.4290407524	3.0790775968
-0.894793231	-1.4336317424	3.0836408079
-1.7868830182	-1.4284739682	3.0792577433
0.0041781671	0.0024883475	6.1559479605
-0.8950737958	0.0101661047	6.172767882
-1.794249485	0.0029987933	6.1563650672
0.0134886316	-0.7167383405	6.1663577824
-0.8948635382	-0.7160915583	6.1807715186
-1.8033296625	-0.7161613487	6.1659235678
0.0035545182	-1.4358652259	6.1565667361
-0.8955311891	-1.4424681661	6.1729335118
-1.7946207317	-1.4352232147	6.1569440614

SCALARS	theta	float 1
LOOKUP_TABLE	default
297.001074705
297.0282844246
297.0021121664
297.0043425669
297.0270863308
297.0058838837
297.0055905677
297.0239433813
297.0050745121
302.8631594616
302.9768304043
302.8626096536
302.92705798
303.0413067134
302.9266478686
302.8625325401
302.9778568324
302.8625933927
318.0507911718
318.2745033802
318.0509031111
318.181918129
318.4058964129
318.18202353
318.0511697806
318.2744287385
318.0510381988

SCALARS	sig_11	float	1
LOOKUP_TABLE	default
2.8073024232
18.6206164601
4.0710916075
14.3697081217
28.4240216816
13.8204970703
3.3442674395
16.7655664358
3.3812180683
5.3879416691
13.3053120583
5.3037584943
12.1213430062
20.2293272816
12.1545036724
5.0118105306
13.1086335516
4.99780655
-44.1191248604
-41.3221336001
-44.0973036908
-41.1140798218
-38.268513378
-41.1216693887
-44.0499023769
-41.2966487355
-44.0433456639

SCALARS	sig_22	float	1
LOOKUP_TABLE	default
-1.883150575
12.8484887715
-0.8119362868
10.6555425628
22.7628367026
10.7102836648
0.6057754754
10.5444157181
0.7021846127
3.6337108776
9.1712117839
3.5683804973
10.7008023103
16.4936969537
10.708220013
3.4093204313
9.2971820998
3.4137451897
-33.7871477212
-31.6993784212
-33.7744153987
-30.5272720527
-28.4201902788
-30.5210970734
-33.7043212723
-31.7490042403
-33.7099287127

SCALARS	sig_33	float	1
LOOKUP_TABLE	default
9.3786622091
47.6925036164
10.0634490863
36.7609772405
73.8045388537
36.5535852752
10.4268795298
46.611616962
10.4112309278
9.5695866718
34.2506762279
9.5007073818
28.4750512514
53.4030824908
28.4770987479
9.4445990629
34.315036949
9.4264764492
-116.7034984183
-103.198932303
-116.7443917633
-105.461803703
-91.7320115332
-105.4389017415
-116.712593773
-103.171639686
-116.6878456642

SCALARS vonMises	float	1
LOOKUP_TABLE	default
60.6511954735
46.4434133018
60.0501126505
52.6683523767
41.6960252797
52.972970856
60.0264289252
48.1267861129
60.1444851342
75.4343874273
72.1785847683
75.4953106881
72.9617669974
69.2093735759
72.9544359692
75.5306812089
72.0377171656
75.5404990778
102.8747378739
98.2395412057
103.0053977629
100.1193417779
95.6254416976
100.0777798836
103.1036739271
98.1384515058
103.0875768951
