# vtk DataFile Version 2.0
Results
ASCII
DATASET UNSTRUCTURED_GRID
POINTS         27           float
0.0	0.0	0.0	
50.0	0.0	0.0	
100.0	0.0	0.0	
0.0	40.0	0.0	
50.0	40.0	0.0	
100.0	40.0	0.0	
0.0	80.0	0.0	
50.0	80.0	0.0	
100.0	80.0	0.0	
0.0	0.0	70.0	
50.0	0.0	70.0	
100.0	0.0	70.0	
0.0	40.0	70.0	
50.0	40.0	70.0	
100.0	40.0	70.0	
0.0	80.0	70.0	
50.0	80.0	70.0	
100.0	80.0	70.0	
0.0	0.0	140.0	
50.0	0.0	140.0	
100.0	0.0	140.0	
0.0	40.0	140.0	
50.0	40.0	140.0	
100.0	40.0	140.0	
0.0	80.0	140.0	
50.0	80.0	140.0	
100.0	80.0	140.0	

CELLS	8	72
 8	0	1	4	3	9	10	13	12	
 8	1	2	5	4	10	11	14	13	
 8	4	5	8	7	13	14	17	16	
 8	3	4	7	6	12	13	16	15	
 8	9	10	13	12	18	19	22	21	
 8	10	11	14	13	19	20	23	22	
 8	13	14	17	16	22	23	26	25	
 8	12	13	16	15	21	22	25	24	

CELL_TYPES	8
 12
 12
 12
 12
 12
 12
 12
 12

POINT_DATA	27
VECTORS	u 	float 
0.0	0.0	0.0
0.0043570048	0.0	0.0
0.0087196999	0.0	0.0
0.0	0.006260344	0.0
0.0043123654	0.006221519	0.0
0.0086162569	0.0063667085	0.0
0.0	0.012933615	0.0
0.00424368	0.0121164252	0.0
0.0083828407	0.0131145943	0.0
0.013591409	0.0161770529	-0.0124160604
0.0043597753	0.0182094662	-0.0059169619
-0.0048762305	0.0163216815	-0.0124329227
0.0137580041	0.0061996084	-0.0086050342
0.0043080729	0.0062477171	-0.0024124117
-0.0051427	0.0063300237	-0.008639737
0.0135212335	-0.0038757447	-0.0123791529
0.0042544328	-0.0056159983	-0.0058625547
-0.0049891875	-0.0037480172	-0.0124020733
-0.0398558684	-0.0343898916	-0.0094463512
0.0043774827	-0.0317165453	0.0119219582
0.0486166086	-0.0342633029	-0.0094754397
-0.039181289	0.0061474734	0.0078363986
0.0043268355	0.0062244012	0.0290294619
0.0478341496	0.0062782871	0.0078160569
-0.0399790949	0.0467296936	-0.009406953
0.0042763377	0.044118884	0.011971376
0.0485233313	0.0468565863	-0.0094331491

VECTORS	v 	float 
0.0	0.0	0.0
-0.0021717236	0.0	0.0
-0.0043407123	0.0	0.0
0.0	-0.0016399957	0.0
-0.0021708934	-0.0016456899	0.0
-0.0043438102	-0.0016368815	0.0
0.0	-0.003262554	0.0
-0.002177043	-0.0033051811	0.0
-0.0043554327	-0.0032577719	0.0
0.0004029196	0.0005046856	0.0073464106
-0.0021703302	0.0005807391	0.0076284281
-0.0047444568	0.0005101205	0.0073457598
0.0004071137	-0.0016449898	0.0075085562
-0.0021729345	-0.0016425328	0.0077837997
-0.0047525481	-0.0016400475	0.0075081073
0.0004002602	-0.003798837	0.00734784
-0.0021741107	-0.0038618238	0.0076309472
-0.0047483049	-0.0037938728	0.0073469173
-0.0016144965	-0.0013903607	0.0153841273
-0.0021703749	-0.0013031888	0.0162332443
-0.0027259286	-0.0013858028	0.0153834897
-0.001597992	-0.001646672	0.0160602936
-0.0021720528	-0.0016440506	0.0169067432
-0.0027461394	-0.0016418866	0.0160597344
-0.0016190047	-0.0019010211	0.0153853737
-0.0021741032	-0.0019868242	0.0162357416
-0.0027294378	-0.0018963627	0.0153848696

VECTORS	a 	float 
0.0	0.0	0.0
-0.2107289095	0.0	0.0
-0.4214228671	0.0	0.0
0.0	-0.1688789749	0.0
-0.2107075388	-0.1688897947	0.0
-0.4214425862	-0.1688951217	0.0
0.0	-0.3377607985	0.0
-0.2107396034	-0.3377752146	0.0
-0.4214394209	-0.3377903988	0.0
-0.0017936201	-0.0020373041	0.7246487515
-0.2107200627	-0.0021351124	0.7243336738
-0.4196566507	-0.0020413665	0.7246520039
-0.0017355944	-0.1688878752	0.724467027
-0.2107252627	-0.1688893546	0.7241973481
-0.4197054185	-0.1688911944	0.724474232
-0.0017908638	-0.3357392756	0.7246491429
-0.2107143047	-0.3356447581	0.7243414802
-0.4196482966	-0.3357428917	0.7246522663
0.0037839181	0.0032439417	1.4479665233
-0.2107273655	0.0030195424	1.4464044428
-0.4252370209	0.0032383802	1.4479781476
0.0037882328	-0.1688901954	1.4466351061
-0.2107232167	-0.1688932266	1.4450897058
-0.4252369315	-0.1688947414	1.4466328601
0.0037861238	-0.3410262479	1.4479724872
-0.2107245609	-0.3408038345	1.4464049723
-0.4252335731	-0.3410289788	1.4479832697

SCALARS	theta	float 1
LOOKUP_TABLE	default
301.8294604276
301.6551777975
301.8209207201
301.763454561
301.6253514183
301.7596057517
301.8004505755
301.6859526765
301.8047366384
297.3838236642
297.109675594
297.3856313484
297.1418525503
296.8634149448
297.1426866928
297.3910817292
297.1042222858
297.3901600678
309.65510892
309.1951583861
309.6548333366
309.2202899834
308.7591766029
309.2196506718
309.6521424776
309.1971280827
309.6527010964

SCALARS	sig_11	float	1
LOOKUP_TABLE	default
-39.2487539027
-29.3429864063
-38.8936801199
-33.2851661583
-24.4384543958
-33.164729642
-38.7401527298
-30.6211486135
-39.0216937774
23.1496812134
37.1529263126
23.1203083612
36.2563385901
50.2481358889
36.2445127569
22.9574216266
37.0726026683
22.9695075621
-61.8321225034
-41.6888047277
-61.8321346475
-41.6575882134
-21.4573156799
-41.6469327366
-61.7748537758
-41.683062502
-61.787512863

SCALARS	sig_22	float	1
LOOKUP_TABLE	default
-33.9180370813
-25.057583117
-33.3384239153
-27.4417715931
-20.1303294074
-27.0787294306
-32.5390212739
-26.4052530399
-32.4762241077
17.6692854384
27.9578977757
17.6556279547
31.2536514038
41.5750029339
31.2606490063
17.5463186917
28.0300022275
17.5727638821
-50.8512167534
-35.7113195033
-50.8592541711
-29.6308065415
-14.4498423606
-29.6253231168
-50.7950950939
-35.7429630262
-50.8165828594

SCALARS	sig_33	float	1
LOOKUP_TABLE	default
-65.0587919563
-47.7291813974
-64.7449669043
-54.5789302069
-38.4614971313
-54.466155018
-64.249500093
-48.6010995592
-64.3972407527
26.369788973
52.6309051362
26.3235784294
49.8628598321
76.0545437093
49.8358141742
26.3052448479
52.6770253782
26.2899098153
-137.7994154631
-100.5114640177
-137.8156985448
-101.0543259801
-63.642683178
-101.0279945778
-137.7597530058
-100.5234766328
-137.7681093168

SCALARS vonMises	float	1
LOOKUP_TABLE	default
58.0320577196
48.3372246576
58.2647304308
43.7646390379
27.3798025638
43.8279613829
58.6498339726
47.8217323127
58.5699030433
89.3978528778
71.8346134142
89.5258364798
69.4681918007
44.7770456512
69.4942511182
89.65279195
71.4852902405
89.6044564639
90.6510144633
76.7612434797
90.6765672933
81.2071571215
67.3586345246
81.2055573686
90.7428197296
76.7128331171
90.718480355
