# vtk DataFile Version 2.0
Results
ASCII
DATASET UNSTRUCTURED_GRID
POINTS         27           float
0.0	0.0	0.0	
50.0	0.0	0.0	
100.0	0.0	0.0	
0.0	40.0	0.0	
50.0	40.0	0.0	
100.0	40.0	0.0	
0.0	80.0	0.0	
50.0	80.0	0.0	
100.0	80.0	0.0	
0.0	0.0	70.0	
50.0	0.0	70.0	
100.0	0.0	70.0	
0.0	40.0	70.0	
50.0	40.0	70.0	
100.0	40.0	70.0	
0.0	80.0	70.0	
50.0	80.0	70.0	
100.0	80.0	70.0	
0.0	0.0	140.0	
50.0	0.0	140.0	
100.0	0.0	140.0	
0.0	40.0	140.0	
50.0	40.0	140.0	
100.0	40.0	140.0	
0.0	80.0	140.0	
50.0	80.0	140.0	
100.0	80.0	140.0	

CELLS	8	72
 8	0	1	4	3	9	10	13	12	
 8	1	2	5	4	10	11	14	13	
 8	4	5	8	7	13	14	17	16	
 8	3	4	7	6	12	13	16	15	
 8	9	10	13	12	18	19	22	21	
 8	10	11	14	13	19	20	23	22	
 8	13	14	17	16	22	23	26	25	
 8	12	13	16	15	21	22	25	24	

CELL_TYPES	8
 12
 12
 12
 12
 12
 12
 12
 12

POINT_DATA	27
VECTORS	u 	float 
0.0	0.0	0.0
-0.0151204933	0.0	0.0
-0.0297921732	0.0	0.0
0.0	-0.0129840516	0.0
-0.0151464189	-0.0130206785	0.0
-0.0306094327	-0.012794199	0.0
0.0	-0.0249075637	0.0
-0.0153075295	-0.0269270083	0.0
-0.0305102952	-0.0246823627	0.0
-0.0282014009	-0.0225648122	-0.0176729103
-0.0150754511	-0.0208483632	0.0027019811
-0.0020598857	-0.0222944271	-0.0176677538
-0.0281073902	-0.0130621498	-0.0038134076
-0.0151883519	-0.0129982903	0.0166119371
-0.0021927126	-0.0128346767	-0.0038398432
-0.0282972451	-0.0038051704	-0.0175913484
-0.0152658106	-0.0049082007	0.0027675896
-0.0022644208	-0.0035775334	-0.0176175981
-0.1101399469	-0.0934107857	0.0469436411
-0.015082934	-0.0933077003	0.0786149362
0.0800274609	-0.093196431	0.0469110926
-0.1101583131	-0.0131632435	0.0695180324
-0.0151614736	-0.0130144995	0.101497739
0.0797994859	-0.012928331	0.0695105431
-0.1103690245	0.0672003192	0.0469840133
-0.0152585724	0.0671667849	0.0787096535
0.0798652209	0.0674294557	0.0469654913

VECTORS	v 	float 
0.0	0.0	0.0
6.6736e-06	0.0	0.0
1.66933e-05	0.0	0.0
0.0	-2.74678e-05	0.0
1.66957e-05	-1.53784e-05	0.0
3.04364e-05	-2.73113e-05	0.0
0.0	-5.15285e-05	0.0
5.4279e-06	-3.34255e-05	0.0
1.27688e-05	-5.11048e-05	0.0
-0.0001345556	-0.0001711689	0.0001153132
1.28693e-05	-0.0001689257	8.63446e-05
0.0001593539	-0.0001699313	0.0001158911
-0.0001282976	-2.08816e-05	9.96014e-05
1.00716e-05	-2.28862e-05	6.80427e-05
0.0001495413	-1.98637e-05	9.89404e-05
-0.0001348438	0.0001284169	0.0001158068
1.21437e-05	0.0001240906	8.7486e-05
0.0001586325	0.0001291489	0.000116258
0.0003046614	0.0002536639	0.0001676028
1.12252e-05	0.0002617368	1.11422e-05
-0.0002818156	0.0002544373	0.0001684078
0.0003257545	-2.32188e-05	3.24071e-05
1.1932e-05	-2.18744e-05	-0.0001284147
-0.0003024781	-2.22545e-05	3.15566e-05
0.0003033972	-0.0002999711	0.0001689675
1.04763e-05	-0.0003057469	1.12633e-05
-0.0002822961	-0.0002987793	0.0001696844

VECTORS	a 	float 
0.0	0.0	0.0
-0.8971529689	0.0	0.0
-1.7935844769	0.0	0.0
0.0	-0.7179706754	0.0
-0.8933597484	-0.7136039735	0.0
-1.7873319597	-0.7178897421	0.0
0.0	-1.4343277737	0.0
-0.898022464	-1.428382134	0.0
-1.7956854119	-1.4341697063	0.0
-0.003154793	-0.0026189155	3.079320548
-0.8948155281	0.0010246334	3.0829561781
-1.7867336419	-0.0019834264	3.0795377094
-0.0011263819	-0.7156725604	3.0802428976
-0.8959712855	-0.7163271798	3.08238488
-1.790541955	-0.71510293	3.0800188331
-0.0034514464	-1.4291619512	3.0795768523
-0.8951849154	-1.4333074421	3.0834583371
-1.7870619093	-1.428656946	3.0797438904
0.0039998862	0.0024531209	6.1557221232
-0.8954499178	0.0095917613	6.1714617725
-1.7948418585	0.0029057976	6.1561025319
0.0124271098	-0.7165752178	6.1655614196
-0.8952573772	-0.7159997295	6.1790806882
-1.8030323009	-0.7160661914	6.1651681651
0.0034547141	-1.4355194549	6.1562671952
-0.8958547541	-1.4416892987	6.1716069491
-1.7951726193	-1.4349551091	6.1566122206

SCALARS	theta	float 1
LOOKUP_TABLE	default
297.0801327814
297.0984695831
297.0805349373
297.0776329811
297.0913803726
297.0795152705
297.0849617185
297.0940383703
297.0842059656
302.3827478184
302.5074028454
302.3821674827
302.4575453158
302.5826747652
302.4570138833
302.3821303411
302.5085946392
302.3822264625
318.8711758121
319.1302355968
318.8713676188
319.0315680782
319.2909542666
319.0317381819
318.8715897218
319.1300821074
318.871440305

SCALARS	sig_11	float	1
LOOKUP_TABLE	default
-1.2553783029
15.1634061563
0.027176875
10.6454468727
25.2674760557
10.1038238556
-0.7078653931
13.2461559619
-0.6878307518
8.8264214641
17.4099798695
8.7422424808
16.123712828
24.8988539441
16.1564653251
8.4383924239
17.2067522698
8.4255589603
-49.3576790003
-45.8013761272
-49.3367284802
-45.6174899855
-42.0106799847
-45.624945175
-49.2857265481
-45.774584359
-49.2799478115

SCALARS	sig_22	float	1
LOOKUP_TABLE	default
-5.3293885416
9.966124397
-4.2189690945
7.5739388739
20.1657768122
7.6488534253
-2.7680934376
7.5898556081
-2.6611738077
6.363897009
12.3685141159
6.2995333674
14.0219855085
20.2860167949
14.0304408645
6.1322444992
12.4978197331
6.1388201721
-37.9740419551
-35.3630595159
-37.9625598734
-33.902497981
-31.2711799916
-33.8965813828
-37.8884650329
-35.4138553896
-37.8953568338

SCALARS	sig_33	float	1
LOOKUP_TABLE	default
3.8452919336
43.4708251503
4.5502479718
31.9486970173
70.2536451734
31.7434932109
4.9243630366
42.3537348527
4.9042938578
14.7479400489
41.5283578536
14.6785227681
35.39366177
62.418847758
35.3947189712
14.6192762872
41.5942238414
14.6005895703
-129.1503151532
-112.7146721759
-129.1935651892
-115.1705482754
-98.5036714239
-115.1469425094
-129.1583508691
-112.6862096262
-129.1341880928

SCALARS vonMises	float	1
LOOKUP_TABLE	default
54.8141324503
42.4360443032
54.2304663797
48.7733898491
40.8842870465
49.0704375932
54.2676190595
44.1893017332
54.4006718908
80.8153177083
77.7193585356
80.9528190762
77.9498793117
73.4649521826
77.9286970282
81.0255705452
77.4989440668
81.0328111556
111.8245160903
106.1138126454
111.956918407
108.3901484229
102.9080495547
108.3497114767
112.0588902862
106.0094078717
112.0410126823
