# vtk DataFile Version 2.0
Results
ASCII
DATASET UNSTRUCTURED_GRID
POINTS         27           float
0.0	0.0	0.0	
50.0	0.0	0.0	
100.0	0.0	0.0	
0.0	40.0	0.0	
50.0	40.0	0.0	
100.0	40.0	0.0	
0.0	80.0	0.0	
50.0	80.0	0.0	
100.0	80.0	0.0	
0.0	0.0	70.0	
50.0	0.0	70.0	
100.0	0.0	70.0	
0.0	40.0	70.0	
50.0	40.0	70.0	
100.0	40.0	70.0	
0.0	80.0	70.0	
50.0	80.0	70.0	
100.0	80.0	70.0	
0.0	0.0	140.0	
50.0	0.0	140.0	
100.0	0.0	140.0	
0.0	40.0	140.0	
50.0	40.0	140.0	
100.0	40.0	140.0	
0.0	80.0	140.0	
50.0	80.0	140.0	
100.0	80.0	140.0	

CELLS	8	72
 8	0	1	4	3	9	10	13	12	
 8	1	2	5	4	10	11	14	13	
 8	4	5	8	7	13	14	17	16	
 8	3	4	7	6	12	13	16	15	
 8	9	10	13	12	18	19	22	21	
 8	10	11	14	13	19	20	23	22	
 8	13	14	17	16	22	23	26	25	
 8	12	13	16	15	21	22	25	24	

CELL_TYPES	8
 12
 12
 12
 12
 12
 12
 12
 12

POINT_DATA	27
VECTORS	u 	float 
0.0	0.0	0.0
0.0002765315	0.0	0.0
0.000848385	0.0	0.0
0.0	-0.0015147287	0.0
0.0002720738	-0.0015348316	0.0
0.0003323976	-0.0014145775	0.0
0.0	-0.0024396468	0.0
0.0001792113	-0.0035653484	0.0
0.0004517037	-0.0023331199	0.0
-0.0244160834	-0.021952719	0.0079307717
0.0003061234	-0.0211415838	0.019010965
0.0249582242	-0.0218092706	0.0079375701
-0.0243983436	-0.0015540271	0.0157650077
0.0002436235	-0.0015227012	0.0269166541
0.0249377853	-0.001433725	0.0157537668
-0.024461277	0.0187071021	0.0079721376
0.0002053169	0.018228332	0.0190415845
0.0248470421	0.0188283512	0.0079595468
-0.0564690735	-0.0481004505	0.0649856545
0.000298221	-0.0482749001	0.07649733
0.0570986194	-0.0479875404	0.0649706984
-0.0566539053	-0.0016059393	0.0724157884
0.0002582027	-0.0015263878	0.0841374342
0.0571460686	-0.0014814871	0.0724150738
-0.0565914532	0.0449531547	0.0650009952
0.0002055211	0.0451604548	0.0765439935
0.0570134501	0.0450747709	0.0649943703

VECTORS	v 	float 
0.0	0.0	0.0
5.6441e-05	0.0	0.0
0.0001093751	0.0	0.0
0.0	6.10265e-05	0.0
4.82117e-05	5.01493e-05	0.0
9.93229e-05	6.02363e-05	0.0
0.0	0.0001157444	0.0
5.83114e-05	0.0001053411	0.0
0.0001152491	0.0001144463	0.0
3.63477e-05	5.13177e-05	9.00646e-05
5.11805e-05	4.29992e-05	5.08785e-05
6.7065e-05	4.93621e-05	8.95564e-05
3.15831e-05	5.53023e-05	6.31951e-05
5.39643e-05	5.69944e-05	2.63117e-05
7.52957e-05	5.36612e-05	6.39095e-05
3.69382e-05	6.09142e-05	8.92083e-05
5.24198e-05	6.93966e-05	4.96723e-05
6.83391e-05	5.95072e-05	8.8905e-05
0.0001386587	0.000124613	2.19035e-05
5.26596e-05	0.0001157201	-2.64372e-05
-3.37693e-05	0.0001234085	2.11726e-05
0.0001216916	5.77421e-05	-9.7606e-06
5.22275e-05	5.6074e-05	-5.48799e-05
-1.67207e-05	5.63134e-05	-8.81e-06
0.0001402721	-9.5721e-06	2.02842e-05
5.36668e-05	-3.0128e-06	-2.67502e-05
-3.3034e-05	-1.11832e-05	1.96535e-05

VECTORS	a 	float 
0.0	0.0	0.0
0.8930693671	0.0	0.0
1.7816136511	0.0	0.0
0.0	0.7229140317	0.0
0.8821709392	0.711797741	0.0
1.7681602979	0.7226858772	0.0
0.0	1.4390977295	0.0
0.8960572097	1.4287030784	0.0
1.7894891808	1.4386333962	0.0
-0.0093773646	0.0094482927	-3.0668405063
0.8862850363	-0.0037291565	-3.086758981
1.7833354773	0.0071071529	-3.0674221152
-0.0179067977	0.717374542	-3.0763759533
0.8898779134	0.7189711592	-3.0934141957
1.7962554738	0.7153168337	-3.0758353139
-0.0084772557	1.427107313	-3.0677687805
0.8876595656	1.4400359686	-3.0887353655
1.7845816111	1.4253362833	-3.0681663349
-0.0048760291	-0.0025034146	-6.1574249216
0.8881973685	-0.0181352614	-6.1953406659
1.7808083044	-0.0041375706	-6.1585944017
-0.0288709288	0.7202402301	-6.1784217456
0.8877312645	0.7183758939	-6.2114812347
1.8049198223	0.7183418334	-6.1772596951
-0.0027065835	1.4425614959	-6.1594012357
0.8897010143	1.4554176044	-6.1960299332
1.7819944003	1.4404040468	-6.1604624898

SCALARS	theta	float 1
LOOKUP_TABLE	default
299.6848008933
299.7305880466
299.6876229113
299.7067835064
299.7481162332
299.7066388047
299.6881531991
299.726339034
299.6880430833
305.1607383157
305.1821186937
305.1604587913
305.1703550115
305.192604743
305.1704958986
305.1598018831
305.182382288
305.1597938627
311.1935869972
311.1991818866
311.1935190306
311.1938054312
311.1994387767
311.1937350304
311.1937931121
311.1991944109
311.1938278513

SCALARS	sig_11	float	1
LOOKUP_TABLE	default
13.7097023191
22.3554467084
14.4712652527
20.2547818742
27.8694237965
19.889481844
14.0260473672
21.3224943956
14.0898509628
-6.8687248664
-3.2914875794
-6.9237323569
-4.0514891768
-0.3557826203
-4.0302520205
-7.0816915361
-3.4002292583
-7.0930642286
-13.6222840135
-13.4328697829
-13.6062128339
-13.7347931076
-13.5213388824
-13.7402047954
-13.5836503813
-13.4202962831
-13.5780216975

SCALARS	sig_22	float	1
LOOKUP_TABLE	default
8.8844972192
16.9339791226
9.4789135413
15.9667784224
22.5249641504
15.9594785601
10.307174567
15.6345080682
10.348887756
-5.8442960724
-3.4005705235
-5.8894432991
-2.9381827388
-0.3418660719
-2.9367415712
-5.9702494825
-3.3252302035
-5.9722908786
-9.7994309864
-9.6490602899
-9.7881162812
-10.0239008998
-9.8663866468
-10.0192175983
-9.7518412854
-9.6782242708
-9.7525610628

SCALARS	sig_33	float	1
LOOKUP_TABLE	default
22.3075966019
43.5468328671
22.6957325182
37.9911313508
58.5419316393
37.8557424372
22.9018158279
42.9488299478
22.9073132513
-9.3073780197
0.9253772977
-9.3521975041
-2.0845767745
8.3099023801
-2.0824986626
-9.378679656
0.9657029175
-9.3886252955
-39.4126236649
-38.7283432986
-39.4335250789
-40.1078669283
-39.2974253712
-40.094522372
-39.4208498234
-38.7141433523
-39.4035248011

SCALARS vonMises	float	1
LOOKUP_TABLE	default
57.6246371499
43.255476494
57.2282596382
46.6031050472
30.4670806212
46.8038862756
57.1262120275
44.1799146965
57.1763043867
38.5557233454
35.1894142317
38.4782033168
36.7141802567
34.1554513862
36.7513164729
38.4565478875
35.3360953618
38.4636907624
40.5211651885
40.6789097933
40.6007565489
40.7969969782
40.9063219914
40.7669548453
40.653838422
40.625162953
40.6477015833
