# vtk DataFile Version 2.0
Results
ASCII
DATASET UNSTRUCTURED_GRID
POINTS         27           float
0.0	0.0	0.0	
50.0	0.0	0.0	
100.0	0.0	0.0	
0.0	40.0	0.0	
50.0	40.0	0.0	
100.0	40.0	0.0	
0.0	80.0	0.0	
50.0	80.0	0.0	
100.0	80.0	0.0	
0.0	0.0	70.0	
50.0	0.0	70.0	
100.0	0.0	70.0	
0.0	40.0	70.0	
50.0	40.0	70.0	
100.0	40.0	70.0	
0.0	80.0	70.0	
50.0	80.0	70.0	
100.0	80.0	70.0	
0.0	0.0	140.0	
50.0	0.0	140.0	
100.0	0.0	140.0	
0.0	40.0	140.0	
50.0	40.0	140.0	
100.0	40.0	140.0	
0.0	80.0	140.0	
50.0	80.0	140.0	
100.0	80.0	140.0	

CELLS	8	72
 8	0	1	4	3	9	10	13	12	
 8	1	2	5	4	10	11	14	13	
 8	4	5	8	7	13	14	17	16	
 8	3	4	7	6	12	13	16	15	
 8	9	10	13	12	18	19	22	21	
 8	10	11	14	13	19	20	23	22	
 8	13	14	17	16	22	23	26	25	
 8	12	13	16	15	21	22	25	24	

CELL_TYPES	8
 12
 12
 12
 12
 12
 12
 12
 12

POINT_DATA	27
VECTORS	u 	float 
0.0	0.0	0.0
-0.0136354823	0.0	0.0
-0.0268259487	0.0	0.0
0.0	-0.0126140518	0.0
-0.0136499995	-0.012646785	0.0
-0.027617149	-0.0124469588	0.0
0.0	-0.0242657401	0.0
-0.0137996929	-0.0260988158	0.0
-0.0274740341	-0.0240768012	0.0
-0.0319601205	-0.0272969964	-0.011863345
-0.0135904219	-0.0258764881	0.0064805466
0.0046715919	-0.0270575724	-0.0118555406
-0.0318819989	-0.0126818381	0.0008349992
-0.0136927052	-0.0126274905	0.0192595503
0.0045740642	-0.012480961	0.0008138535
-0.0320408522	0.0017097988	-0.0117915126
-0.0137587085	0.0008387538	0.0065368515
0.0044892465	0.0019114114	-0.0118134431
-0.0967754429	-0.0821829475	0.053540381
-0.0136004046	-0.0823142183	0.0779791826
0.0696259488	-0.0819939421	0.0535132895
-0.0968909617	-0.0127715073	0.0703771616
-0.0136684318	-0.0126391429	0.0951267746
0.0695178203	-0.0125638521	0.0703730074
-0.0969792211	0.0567454519	0.0535733047
-0.0137553589	0.0569347498	0.078061991
0.0694834869	0.0569480072	0.0535593295

VECTORS	v 	float 
0.0	0.0	0.0
4.49727e-05	0.0	0.0
8.64693e-05	0.0	0.0
0.0	3.69684e-05	0.0
3.73864e-05	2.83158e-05	0.0
7.76235e-05	3.64192e-05	0.0
0.0	6.77e-05	0.0
4.72194e-05	6.1524e-05	0.0
9.27631e-05	6.68043e-05	0.0
-4.89196e-05	-4.3115e-05	0.0001239873
4.01e-05	-5.1484e-05	7.68552e-05
0.0001302018	-4.51236e-05	0.0001235723
-5.20201e-05	3.25944e-05	9.63108e-05
4.27953e-05	3.38487e-05	5.14741e-05
0.000136595	3.08575e-05	9.67777e-05
-4.81611e-05	0.000109926	0.0001230583
4.1347e-05	0.0001176435	7.55822e-05
0.0001313822	0.0001083889	0.0001228346
0.0002582846	0.0002183458	8.73619e-05
4.14943e-05	0.0002131824	-3.17216e-05
-0.0001756901	0.0002170297	8.66098e-05
0.0002466693	3.48347e-05	-1.5917e-06
4.12073e-05	3.32362e-05	-0.0001174181
-0.0001638201	3.32989e-05	-7.392e-07
0.0002599812	-0.0001491575	8.57783e-05
4.26493e-05	-0.0001461492	-3.21999e-05
-0.0001747661	-0.0001508599	8.51106e-05

VECTORS	a 	float 
0.0	0.0	0.0
0.8961246929	0.0	0.0
1.7908442138	0.0	0.0
0.0	0.7189457934	0.0
0.8909901135	0.713298708	0.0
1.7831697596	0.718848085	0.0
0.0	1.4353800635	0.0
0.8973800993	1.4284583806	0.0
1.7939790253	1.4351860655	0.0
0.0005206249	0.0039436573	-3.0771193603
0.8929547101	-0.0012737624	-3.0833734284
1.7858513635	0.0030115	-3.07740588
-0.0026892733	0.7160262413	-3.079419835
0.8945616483	0.7168680588	-3.0839260524
1.7913341361	0.7151963918	-3.0791432965
0.0009217686	1.4287856821	-3.0775019311
0.893496992	1.4344173605	-3.0841334337
1.7863364537	1.4280583259	-3.0777121749
-0.004759377	-0.002724813	-6.1569648855
0.8938355443	-0.0112731377	-6.1757743396
1.7923019866	-0.0033729729	-6.1574966637
-0.0160276819	0.717287184	-6.1682291014
0.8935808338	0.7164807158	-6.1843101956
1.8033664185	0.7165459716	-6.167695772
-0.0039416934	1.4371575859	-6.1577738965
0.8944223409	1.4444055917	-6.1760096769
1.7927724994	1.4363249475	-6.1582541849

SCALARS	theta	float 1
LOOKUP_TABLE	default
297.0583623721
297.1005199692
297.0606044879
297.0721589939
297.1092951242
297.0729465056
297.0628429915
297.0958318396
297.0627261773
303.7024130738
303.7903545906
303.7018789939
303.7470837099
303.8358980827
303.7469208042
303.701602698
303.7912090845
303.7016017735
316.4373211768
316.5888322501
316.4373416931
316.5178064853
316.6694368756
316.517787082
316.4377183292
316.5888088109
316.4376364801

SCALARS	sig_11	float	1
LOOKUP_TABLE	default
9.2764016252
23.8237261528
10.4846817842
20.0593495844
32.9391252198
19.5119037897
9.7875248734
22.1009686897
9.8484972601
-0.3793294225
6.4037461582
-0.4619551735
5.3257669692
12.292696101
5.3584584296
-0.7298033532
6.2216566442
-0.7451021416
-34.7540611032
-33.0616568977
-34.7312231047
-32.978048011
-31.2417421467
-32.9856603488
-34.6898289033
-33.0389019823
-34.6822494199

SCALARS	sig_22	float	1
LOOKUP_TABLE	default
3.7117997855
17.2637199004
4.7027417819
15.4026399145
26.5017714201
15.4273496903
6.0400847103
15.1166334893
6.1202235094
-0.9304061123
3.7878157169
-0.99613392
5.0532917835
10.0141595149
5.0585059857
-1.1392962601
3.9066902357
-1.1382477668
-26.2949245338
-25.0111158573
-26.2803774368
-24.3889692921
-23.0884898426
-24.382363325
-26.2176033762
-25.0581629869
-26.2210837869

SCALARS	sig_33	float	1
LOOKUP_TABLE	default
18.0925728669
53.5111652249
18.7333451485
43.7181549929
77.9638444393
43.5122073791
19.0732813716
52.5072664265
19.0657043579
0.8531448912
21.7116477758
0.7860765666
16.5584830175
37.6595791262
16.5612122152
0.7362002706
21.7730772695
0.7193208584
-94.002358888
-85.3580214258
-94.0386297965
-87.396109444
-78.5417461369
-87.374453413
-94.012302334
-85.3335725874
-93.9871230049

SCALARS vonMises	float	1
LOOKUP_TABLE	default
69.101991184
52.2799504899
68.5014670022
58.0777043005
42.3581524169
58.3780303457
68.4085969871
53.8212797547
68.5064607848
66.692695242
62.6915066011
66.6561999787
64.2529932675
61.1836298209
64.2700499672
66.6486477366
62.69461672
66.6593967752
85.9581809781
83.2751518255
86.0832632869
84.4406893233
81.7934724307
84.3980251076
86.1731123746
83.1827849377
86.1599211571
