# vtk DataFile Version 2.0
Results
ASCII
DATASET UNSTRUCTURED_GRID
POINTS         27           float
0.0	0.0	0.0	
50.0	0.0	0.0	
100.0	0.0	0.0	
0.0	40.0	0.0	
50.0	40.0	0.0	
100.0	40.0	0.0	
0.0	80.0	0.0	
50.0	80.0	0.0	
100.0	80.0	0.0	
0.0	0.0	70.0	
50.0	0.0	70.0	
100.0	0.0	70.0	
0.0	40.0	70.0	
50.0	40.0	70.0	
100.0	40.0	70.0	
0.0	80.0	70.0	
50.0	80.0	70.0	
100.0	80.0	70.0	
0.0	0.0	140.0	
50.0	0.0	140.0	
100.0	0.0	140.0	
0.0	40.0	140.0	
50.0	40.0	140.0	
100.0	40.0	140.0	
0.0	80.0	140.0	
50.0	80.0	140.0	
100.0	80.0	140.0	

CELLS	8	72
 8	0	1	4	3	9	10	13	12	
 8	1	2	5	4	10	11	14	13	
 8	4	5	8	7	13	14	17	16	
 8	3	4	7	6	12	13	16	15	
 8	9	10	13	12	18	19	22	21	
 8	10	11	14	13	19	20	23	22	
 8	13	14	17	16	22	23	26	25	
 8	12	13	16	15	21	22	25	24	

CELL_TYPES	8
 12
 12
 12
 12
 12
 12
 12
 12

POINT_DATA	27
VECTORS	u 	float 
0.0	0.0	0.0
-0.0038348145	0.0	0.0
-0.0073277438	0.0	0.0
0.0	-0.0049962441	0.0
-0.0038409123	-0.0050214746	0.0
-0.0079269823	-0.0048797143	0.0
0.0	-0.0093053317	0.0
-0.0039486612	-0.0106198806	0.0
-0.00778975	-0.0091807067	0.0
-0.0277811431	-0.0248600984	0.002995255
-0.0038008493	-0.0239083083	0.0159191462
0.0200980787	-0.0246927363	0.0030028524
-0.0277537269	-0.0050434872	0.0121107364
-0.0038735314	-0.0050064264	0.0251153632
0.0200670334	-0.0049031472	0.0120976083
-0.0278344047	0.0146130017	0.0030439778
-0.0039184233	0.0140496019	0.0159557544
0.0199688725	0.0147544026	0.0030291995
-0.0661199176	-0.0562987053	0.0629443536
-0.0038097227	-0.0564921279	0.076814279
0.0585388529	-0.0561667786	0.0629267053
-0.0663178993	-0.0051044978	0.0719814309
-0.003856619	-0.0050117739	0.0860938674
0.0585765867	-0.0049591898	0.0719803976
-0.0662629293	0.0461650112	0.0629632045
-0.0039180466	0.0463967215	0.0768697235
0.0584393961	0.04630692	0.0629552417

VECTORS	v 	float 
0.0	0.0	0.0
6.42953e-05	0.0	0.0
0.0001337153	0.0	0.0
0.0	5.40353e-05	0.0
7.22133e-05	5.989e-05	0.0
0.0001400048	5.38075e-05	0.0
0.0	0.0001134444	0.0
6.1748e-05	0.0001156769	0.0
0.0001269405	0.0001133772	0.0
5.98732e-05	3.68355e-05	8.44483e-05
6.90954e-05	4.93701e-05	7.3967e-05
7.68342e-05	3.86225e-05	8.47947e-05
6.73342e-05	5.65479e-05	7.19332e-05
6.63556e-05	5.56084e-05	6.0345e-05
6.69411e-05	5.80647e-05	7.17014e-05
5.93106e-05	7.46838e-05	8.52036e-05
6.81557e-05	6.32595e-05	7.59852e-05
7.61287e-05	7.58273e-05	8.54343e-05
0.000145616	0.000140758	3.16594e-05
6.7505e-05	0.0001508372	2.30974e-05
-1.00392e-05	0.0001415926	3.25843e-05
0.0001611653	5.44246e-05	1.5704e-05
6.80615e-05	5.56676e-05	4.8277e-06
-2.57757e-05	5.55479e-05	1.48859e-05
0.0001440727	-3.15533e-05	3.34241e-05
6.66802e-05	-4.00254e-05	2.38385e-05
-1.05258e-05	-3.01023e-05	3.4279e-05

VECTORS	a 	float 
0.0	0.0	0.0
-0.8937339402	0.0	0.0
-1.7839953945	0.0	0.0
0.0	-0.7217964109	0.0
-0.8846564911	-0.712380578	0.0
-1.7722439894	-0.7216227361	0.0
0.0	-1.4382784463	0.0
-0.8961694362	-1.4287690555	0.0
-1.7903207699	-1.4379282853	0.0
0.0062175176	-0.0079796564	3.0699391667
-0.8880918687	0.0025289104	3.0851769499
-1.783482762	-0.0061001271	3.0704348612
0.0131908988	-0.7170613698	3.0770247296
-0.8910484227	-0.7184182874	3.0897059758
-1.7941911169	-0.7154004002	3.076571283
0.0054717413	-1.4275692446	3.0706948743
-0.8891949711	-1.4380842714	3.0867453544
-1.7844810217	-1.4261288688	3.0710383489
0.0060589039	0.0029426592	6.1580604309
-0.8896708624	0.0163790759	6.1892068989
-1.7850543944	0.0042783304	6.1590410837
0.02628753	-0.7194124012	6.1758027037
-0.8892812254	-0.7178855452	6.2026745654
-1.8052935582	-0.7178711709	6.174836468
0.0043175331	-1.4414415819	6.1596593269
-0.8908980864	-1.4525543628	6.1897405741
-1.7860337943	-1.4396988905	6.1605449383

SCALARS	theta	float 1
LOOKUP_TABLE	default
298.8337402447
298.8841272729
298.8368089792
298.8572759943
298.902694217
298.8572015154
298.8375768742
298.8794556935
298.8374772576
305.0213875637
305.0511247659
305.0210513572
305.0348585827
305.0655529736
305.0349814937
305.0203887738
305.0514975945
305.020385857
312.2805873789
312.2995385348
312.2805032698
312.2871487158
312.3061515076
312.2870658288
312.2808531775
312.2995655016
312.280860587

SCALARS	sig_11	float	1
LOOKUP_TABLE	default
14.887907399
24.9896256773
15.7723745031
22.5183832891
31.4196267192
22.0971161589
15.2566975098
23.783281892
15.3267627965
-7.1034401637
-2.8701554606
-7.1667706814
-3.7325565267
0.6375145327
-3.7080589313
-7.3517921583
-2.9975919091
-7.3647376649
-16.8805233342
-16.5591474518
-16.8620657645
-16.8507780641
-16.5007575831
-16.8567855655
-16.8355306264
-16.5442982058
-16.829079288

SCALARS	sig_22	float	1
LOOKUP_TABLE	default
9.4568002693
18.8641508219
10.1506638
17.7172446536
25.3856945111
17.7121916976
11.1145858887
17.3478663993
11.163122269
-6.09575588
-3.1953609529
-6.1476292186
-2.6078037789
0.4694004701
-2.6060560277
-6.2428437255
-3.1083836801
-6.244906271
-12.2532520947
-12.0007078465
-12.2404525607
-12.3242976443
-12.0626710799
-12.3187262887
-12.1980322093
-12.0346985515
-12.1991122184

SCALARS	sig_33	float	1
LOOKUP_TABLE	default
24.4811227582
49.2626524436
24.9338952257
42.7424842042
66.7167528704
42.586465979
25.1745490881
48.5630562213
25.1785719781
-9.514324975
2.7262800115
-9.5658640923
-0.7848696782
11.6415919455
-0.7826383052
-9.597474474
2.7723232755
-9.609180976
-48.3041160978
-46.9059315709
-48.3286721145
-48.4789256901
-46.9329683173
-48.4630580202
-48.3134832
-46.8892850413
-48.2936417443

SCALARS vonMises	float	1
LOOKUP_TABLE	default
65.0448543513
48.8368021761
64.5867876949
52.7734562762
34.8376625442
53.0046512612
64.4723027928
49.9120757357
64.5312514121
45.0812393956
41.197358804
44.9962392564
42.95076763
40.1117959858
42.9905204107
44.9725214417
41.3512044128
44.9809364857
48.7904084391
48.7205282785
48.8827892576
48.9433216772
48.8198095824
48.9087193168
48.9450337079
48.6572440824
48.9378100841
