# vtk DataFile Version 2.0
Results
ASCII
DATASET UNSTRUCTURED_GRID
POINTS         27           float
0.0	0.0	0.0	
50.0	0.0	0.0	
100.0	0.0	0.0	
0.0	40.0	0.0	
50.0	40.0	0.0	
100.0	40.0	0.0	
0.0	80.0	0.0	
50.0	80.0	0.0	
100.0	80.0	0.0	
0.0	0.0	70.0	
50.0	0.0	70.0	
100.0	0.0	70.0	
0.0	40.0	70.0	
50.0	40.0	70.0	
100.0	40.0	70.0	
0.0	80.0	70.0	
50.0	80.0	70.0	
100.0	80.0	70.0	
0.0	0.0	140.0	
50.0	0.0	140.0	
100.0	0.0	140.0	
0.0	40.0	140.0	
50.0	40.0	140.0	
100.0	40.0	140.0	
0.0	80.0	140.0	
50.0	80.0	140.0	
100.0	80.0	140.0	

CELLS	8	72
 8	0	1	4	3	9	10	13	12	
 8	1	2	5	4	10	11	14	13	
 8	4	5	8	7	13	14	17	16	
 8	3	4	7	6	12	13	16	15	
 8	9	10	13	12	18	19	22	21	
 8	10	11	14	13	19	20	23	22	
 8	13	14	17	16	22	23	26	25	
 8	12	13	16	15	21	22	25	24	

CELL_TYPES	8
 12
 12
 12
 12
 12
 12
 12
 12

POINT_DATA	27
VECTORS	u 	float 
0.0	0.0	0.0
-0.0062644876	0.0	0.0
-0.0122883801	0.0	0.0
0.0	-0.0006780247	0.0
-0.0063574845	-0.0007114532	0.0
-0.0128694166	-0.0003920955	0.0
0.0	-2.71581e-05	0.0
-0.0065453303	-0.0025185444	0.0
-0.0132272542	0.000389249	0.0
0.0057701327	0.0142273504	-0.0289953596
-0.0062353888	0.0181731433	-0.0047373206
-0.0183085263	0.0146151484	-0.0290162263
0.0056932823	-0.0007878241	-0.0138251763
-0.0063808788	-0.000682811	0.0100784163
-0.0184234768	-0.0004522026	-0.0138903734
0.0056013125	-0.0161130685	-0.0288809576
-0.0065135499	-0.0192319528	-0.0046313591
-0.0186023293	-0.0157800843	-0.0289322492
-0.1420482729	-0.1211348386	0.0207721739
-0.0062142427	-0.1176289379	0.0804235787
0.1296584998	-0.1208135659	0.0207084377
-0.1417292941	-0.0009318218	0.067160305
-0.0063408442	-0.0007190356	0.1268121954
0.1290325887	-0.0005881326	0.0671259527
-0.1423728187	0.1194188081	0.0208467405
-0.006474493	0.1160442924	0.0805594775
0.1294139111	0.1197526266	0.0207971819

VECTORS	v 	float 
0.0	0.0	0.0
-0.0002630435	0.0	0.0
-0.0005181219	0.0	0.0
0.0	-0.0003173273	0.0
-0.0002519472	-0.0003099221	0.0
-0.0005098335	-0.0003200561	0.0
0.0	-0.0006353525	0.0
-0.000264076	-0.0006190682	0.0
-0.000520073	-0.0006409929	0.0
-0.0007287134	-0.0007729992	0.0001159813
-0.0002568939	-0.0008223335	8.10534e-05
0.0002127318	-0.0007740702	0.0001172782
-0.0007249286	-0.0003130199	0.0001105134
-0.0002592563	-0.0003151121	8.66951e-05
0.0002083929	-0.0003140173	0.0001114511
-0.000727902	0.0001470599	0.000116146
-0.0002556843	0.0001916571	8.15645e-05
0.0002143173	0.0001460885	0.0001172383
0.0004199612	0.0003796096	0.0004340037
-0.0002594107	0.000291869	-2.8375e-06
-0.000938276	0.0003783263	0.0004364118
0.0004153872	-0.000314133	4.63912e-05
-0.0002578766	-0.0003143056	-0.0003838356
-0.0009317152	-0.0003152354	4.5864e-05
0.0004207212	-0.0010082786	0.000434672
-0.000258617	-0.0009199475	-3.117e-06
-0.0009374348	-0.0010091211	0.0004369579

VECTORS	a 	float 
0.0	0.0	0.0
-0.8955893793	0.0	0.0
-1.7905674616	0.0	0.0
0.0	-0.7168936526	0.0
-0.8940217739	-0.7159839343	0.0
-1.7885384403	-0.7170383384	0.0
0.0	-1.4331073722	0.0
-0.8961575805	-1.43240151	0.0
-1.7917608242	-1.4333814739	0.0
-0.0021846551	-0.0030879056	3.0802336515
-0.8946819587	-0.001763975	3.0822402063
-1.7873821898	-0.0028450814	3.0803204802
-0.0011240588	-0.7165234126	3.0806292255
-0.8951762342	-0.716642702	3.0826475555
-1.7890412328	-0.7162821809	3.0806584782
-0.002317384	-1.4301473225	3.0803340576
-0.8947907705	-1.4313907987	3.0825513622
-1.7874424475	-1.4299146748	3.0804076232
0.0039120472	0.0030987167	6.1587072725
-0.8949834212	0.0042813104	6.1625754939
-1.7938559158	0.003277329	6.1589714174
0.0062385171	-0.7168314084	6.160556791
-0.8949088446	-0.7166607061	6.1639206789
-1.7960866325	-0.7166308738	6.1603897859
0.0036893569	-1.4367361142	6.158958095
-0.8951616475	-1.4376192849	6.1626850613
-1.7940053709	-1.4365074963	6.1592060602

SCALARS	theta	float 1
LOOKUP_TABLE	default
300.7250036513
300.5549451099
300.7134734183
300.6433825738
300.472155426
300.6452188809
300.7248072778
300.5596360415
300.7225142892
296.103249047
296.0391782818
296.1039323733
296.1523686339
296.085711739
296.1512542583
296.1031390141
296.0417224756
296.1038758345
328.0364930604
328.1011923393
328.0369330673
328.2359115391
328.3012923426
328.2366693583
328.0378927643
328.0991109662
328.0372007561

SCALARS	sig_11	float	1
LOOKUP_TABLE	default
-65.4219770382
-41.7984347132
-64.2203041476
-50.6721439916
-29.0119525186
-50.8047637638
-64.795467058
-44.42345794
-65.1691211367
53.981250654
76.7801155908
53.908980978
72.4132490041
95.3491644743
72.4201436508
53.498801872
76.5021411627
53.5071242763
-125.5964920431
-100.3209809224
-125.5922041014
-103.6059380728
-78.252962563
-103.6043265741
-125.5089208075
-100.2683206532
-125.5173267828

SCALARS	sig_22	float	1
LOOKUP_TABLE	default
-58.6851115633
-37.1073748132
-57.1835530166
-42.6750379292
-24.4945178073
-42.1194866654
-55.4447642546
-40.2216045378
-55.2041072689
42.3594139
58.2325446426
42.3218951395
61.301900888
77.4262700155
61.3273078568
42.0712706208
58.3860486467
42.1140018944
-99.4514454732
-81.6078118129
-99.4614796079
-76.3376840918
-58.4659044072
-76.3383413883
-99.346850556
-81.6594638048
-99.3742814483

SCALARS	sig_33	float	1
LOOKUP_TABLE	default
-84.7323654969
-33.3455216556
-83.8961867247
-52.2843468811
-2.8266154622
-52.282296249
-83.3312432789
-34.8947293581
-83.4800926976
85.6195268094
142.3874665687
85.5358712131
130.9309019412
187.7785891733
130.902722567
85.4803626401
142.459077426
85.4443713712
-290.5809443098
-225.017716492
-290.644197125
-232.0112596559
-166.1954935087
-231.9746176604
-290.5813269386
-224.9695926086
-290.5686872719

SCALARS vonMises	float	1
LOOKUP_TABLE	default
65.6940034644
63.0989502249
66.5326163316
48.1035979348
45.7606163836
48.1458840675
67.9579457303
62.2150164455
67.8496050204
198.977299859
170.9114831617
199.419575093
165.1404141637
129.2679905285
165.122187874
199.7753919048
170.0259618504
199.6809672788
219.8509526247
195.5015861161
219.972080912
205.2901777126
182.5277407785
205.2767610323
220.1377592378
195.3584091022
220.0854466073
