# vtk DataFile Version 2.0
Results
ASCII
DATASET UNSTRUCTURED_GRID
POINTS         27           float
0.0	0.0	0.0	
50.0	0.0	0.0	
100.0	0.0	0.0	
0.0	40.0	0.0	
50.0	40.0	0.0	
100.0	40.0	0.0	
0.0	80.0	0.0	
50.0	80.0	0.0	
100.0	80.0	0.0	
0.0	0.0	70.0	
50.0	0.0	70.0	
100.0	0.0	70.0	
0.0	40.0	70.0	
50.0	40.0	70.0	
100.0	40.0	70.0	
0.0	80.0	70.0	
50.0	80.0	70.0	
100.0	80.0	70.0	
0.0	0.0	140.0	
50.0	0.0	140.0	
100.0	0.0	140.0	
0.0	40.0	140.0	
50.0	40.0	140.0	
100.0	40.0	140.0	
0.0	80.0	140.0	
50.0	80.0	140.0	
100.0	80.0	140.0	

CELLS	8	72
 8	0	1	4	3	9	10	13	12	
 8	1	2	5	4	10	11	14	13	
 8	4	5	8	7	13	14	17	16	
 8	3	4	7	6	12	13	16	15	
 8	9	10	13	12	18	19	22	21	
 8	10	11	14	13	19	20	23	22	
 8	13	14	17	16	22	23	26	25	
 8	12	13	16	15	21	22	25	24	

CELL_TYPES	8
 12
 12
 12
 12
 12
 12
 12
 12

POINT_DATA	27
VECTORS	u 	float 
0.0	0.0	0.0
-0.0130956091	0.0	0.0
-0.0257507826	0.0	0.0
0.0	-0.0122766297	0.0
-0.0131085862	-0.012308777	0.0
-0.0265314375	-0.0121138014	0.0
0.0	-0.0236115556	0.0
-0.013255567	-0.0254057727	0.0
-0.0263845572	-0.0234287973	0.0
-0.032191606	-0.0277009559	-0.0106712384
-0.0130509561	-0.0263261197	0.0072484072
0.0059833582	-0.0274674807	-0.0106632067
-0.0321186229	-0.0123426304	0.0017650727
-0.013151021	-0.0122898962	0.0197682566
0.0058934437	-0.0121467967	0.0017447858
-0.0322697367	0.0027968875	-0.0106013075
-0.0132150329	0.0019587899	0.0073029798
0.0058053163	0.0029935389	-0.0106225599
-0.0941676826	-0.0799914382	0.0546037346
-0.0130611474	-0.0801439223	0.077865784
0.0680959652	-0.0798072242	0.0545775438
-0.0942990448	-0.0124299877	0.0705320695
-0.0131272851	-0.0123008373	0.0941023842
0.0680084981	-0.012227528	0.0705283803
-0.0943665136	0.0552347382	0.0546353077
-0.0132121837	0.0554433022	0.0779463075
0.0679571822	0.0554322285	0.0546220075

VECTORS	v 	float 
0.0	0.0	0.0
5.09861e-05	0.0	0.0
9.83442e-05	0.0	0.0
0.0	4.35655e-05	0.0
4.29284e-05	3.47454e-05	0.0
8.88304e-05	4.30354e-05	0.0
0.0	8.08484e-05	0.0
5.32373e-05	7.44201e-05	0.0
0.0001046762	8.00031e-05	0.0
-3.33708e-05	-2.69911e-05	0.0001222246
4.58429e-05	-3.5297e-05	7.52267e-05
0.0001261686	-2.89849e-05	0.0001218195
-3.66016e-05	3.90999e-05	9.44784e-05
4.86327e-05	4.0396e-05	4.96327e-05
0.0001328231	3.73773e-05	9.49148e-05
-3.26325e-05	0.000106825	0.0001212988
4.7076e-05	0.0001145426	7.39442e-05
0.0001273362	0.0001053002	0.0001210899
0.0002509919	0.0002123564	7.90025e-05
4.73217e-05	0.0002070798	-3.14358e-05
-0.0001567551	0.0002110761	7.82624e-05
0.0002387642	4.13625e-05	-2.0305e-06
4.69803e-05	3.97633e-05	-0.0001093633
-0.0001443552	3.98623e-05	-1.2079e-06
0.0002526594	-0.000130118	7.74237e-05
4.84439e-05	-0.0001269886	-3.19224e-05
-0.0001558661	-0.0001317849	7.67694e-05

VECTORS	a 	float 
0.0	0.0	0.0
0.8959221273	0.0	0.0
1.7902954458	0.0	0.0
0.0	0.719154511	0.0
0.890493364	0.7132223512	0.0
1.7822975455	0.719052073	0.0
0.0	1.4356047412	0.0
0.897259607	1.4284532242	0.0
1.7936509571	1.4354009665	0.0
-2.08897e-05	0.0042160074	-3.0766545144
0.8925692458	-0.0013383943	-3.0834657412
1.7856651351	0.003219874	-3.0769562752
-0.0034758561	0.7160952486	-3.0792449766
0.8942744038	0.7169789507	-3.0842490593
1.7915031186	0.7152093693	-3.0789559913
0.0004028948	1.4287030474	-3.0770641019
0.8931489841	1.4346563188	-3.084280637
1.7861843629	1.427927826	-3.0772840492
-0.0049125583	-0.0027734481	-6.1571933029
0.8935036651	-0.0116399669	-6.1767004036
1.7917764525	-0.0034637135	-6.1577573506
-0.0167979504	0.7174339762	-6.1687915505
0.8932350878	0.716577211	-6.1854572714
1.8034636038	0.7166428171	-6.1682276643
-0.004036413	1.4374873538	-6.1580586379
0.8941295236	1.4449811793	-6.1769549857
1.7922769834	1.436597122	-6.1585678425

SCALARS	theta	float 1
LOOKUP_TABLE	default
297.1256625502
297.1706095154
297.1281206816
297.1415888804
297.1814256427
297.1422332915
297.1301225464
297.1658582485
297.1300493493
303.8933015148
303.9742099688
303.892783224
303.933562906
304.0153872395
303.9334485861
303.8924528485
303.9750141877
303.8924477246
316.019386377
316.1527673047
316.0193838094
316.0885789261
316.2220600981
316.0885390663
316.0197793739
316.1527573991
316.0197052732

SCALARS	sig_11	float	1
LOOKUP_TABLE	default
10.5995507406
24.7814075302
11.7870554035
21.1414517097
33.6880159555
20.5989734469
11.1009337439
23.0991275996
11.1661043205
-1.6203686188
4.8900954901
-1.7020553083
3.8306252966
10.5221306365
3.862920584
-1.9629931938
4.7122943676
-1.9784242298
-32.5355602491
-31.0661080405
-32.5127211097
-31.0278885946
-29.5158571993
-31.0354326636
-32.4728843151
-31.0440750092
-32.4651786787

SCALARS	sig_22	float	1
LOOKUP_TABLE	default
4.8847255629
18.0951890908
5.8518594979
16.3136321855
27.1252186712
16.3326164046
7.1626719562
15.9964785946
7.2390213943
-1.9057345445
2.6158339224
-1.9710302789
3.8065601673
8.5663195632
3.8112759144
-2.1098481447
2.7324075163
-2.1094568276
-24.525993869
-23.4058286708
-24.5112243312
-22.9221854278
-21.786086412
-22.9155358371
-24.4503881012
-23.451977264
-24.4534416333

SCALARS	sig_33	float	1
LOOKUP_TABLE	default
19.8375047183
54.403406542
20.4641657678
44.9136468231
78.3362753803
44.7099100866
20.7964766395
53.4233752
20.7906610658
-1.0212769214
18.8911269068
-1.0875181533
13.8931650906
34.0454033728
13.895955934
-1.1356703109
18.9515085031
-1.152172381
-88.5280492183
-80.9651896758
-88.5631730216
-82.9605216862
-75.1923362571
-82.9392493768
-88.5382038715
-80.9414395858
-88.5131296555

SCALARS vonMises	float	1
LOOKUP_TABLE	default
70.4916478273
53.2358091203
69.8966776115
58.8864448098
42.2601934532
59.1845380445
69.7939029968
54.7388152042
69.8870001027
64.6185345451
60.4512874147
64.567238669
62.1482783683
59.1277782223
62.1705720644
64.5541363896
60.4853165169
64.5647537273
81.7934602157
79.51990257
81.9165827255
80.5410130564
78.2814597065
80.4983239061
82.0040901447
79.4299070489
81.9916799969
