# vtk DataFile Version 2.0
Results
ASCII
DATASET UNSTRUCTURED_GRID
POINTS         27           float
0.0	0.0	0.0	
50.0	0.0	0.0	
100.0	0.0	0.0	
0.0	40.0	0.0	
50.0	40.0	0.0	
100.0	40.0	0.0	
0.0	80.0	0.0	
50.0	80.0	0.0	
100.0	80.0	0.0	
0.0	0.0	70.0	
50.0	0.0	70.0	
100.0	0.0	70.0	
0.0	40.0	70.0	
50.0	40.0	70.0	
100.0	40.0	70.0	
0.0	80.0	70.0	
50.0	80.0	70.0	
100.0	80.0	70.0	
0.0	0.0	140.0	
50.0	0.0	140.0	
100.0	0.0	140.0	
0.0	40.0	140.0	
50.0	40.0	140.0	
100.0	40.0	140.0	
0.0	80.0	140.0	
50.0	80.0	140.0	
100.0	80.0	140.0	

CELLS	8	72
 8	0	1	4	3	9	10	13	12	
 8	1	2	5	4	10	11	14	13	
 8	4	5	8	7	13	14	17	16	
 8	3	4	7	6	12	13	16	15	
 8	9	10	13	12	18	19	22	21	
 8	10	11	14	13	19	20	23	22	
 8	13	14	17	16	22	23	26	25	
 8	12	13	16	15	21	22	25	24	

CELL_TYPES	8
 12
 12
 12
 12
 12
 12
 12
 12

POINT_DATA	27
VECTORS	u 	float 
0.0	0.0	0.0
-0.0146576585	0.0	0.0
-0.0288630965	0.0	0.0
0.0	-0.0131023502	0.0
-0.0146754399	-0.0131369503	0.0
-0.0296719433	-0.012924376	0.0
0.0	-0.0251916427	0.0
-0.014833225	-0.0271207164	0.0
-0.029547277	-0.0249861124	0.0
-0.0306914996	-0.0255657456	-0.0147987355
-0.0146112432	-0.0240115551	0.004584765
0.0013588078	-0.0253110092	-0.0147918731
-0.0305994087	-0.0131752099	-0.0014840165
-0.0147193399	-0.0131163648	0.0179692948
0.0012388966	-0.0129612465	-0.0015074955
-0.0307793289	-0.0010197044	-0.0147221251
-0.0147903626	-0.0019921985	0.0046458816
0.0011655214	-0.0008052719	-0.014745962
-0.1033645693	-0.0877169885	0.050532691
-0.0146205892	-0.0877598149	0.0782841964
0.0741761874	-0.0875155278	0.0505032218
-0.103428095	-0.013270749	0.0699640395
-0.0146935358	-0.013130242	0.0980290416
0.0740044238	-0.0130496362	0.0699584201
-0.1035810381	0.0612864442	0.0505692325
-0.0147857613	0.0613926557	0.0783730418
0.0740240512	0.061502154	0.0505533897

VECTORS	v 	float 
0.0	0.0	0.0
2.64441e-05	0.0	0.0
4.73778e-05	0.0	0.0
0.0	1.41766e-05	0.0
1.71394e-05	8.3784e-06	0.0
3.8783e-05	1.39564e-05	0.0
0.0	2.0142e-05	0.0
2.98637e-05	2.30462e-05	0.0
5.63669e-05	1.98733e-05	0.0
-9.31933e-05	-8.81998e-05	0.0001425982
2.06654e-05	-0.0001070781	7.64938e-05
0.0001361936	-9.07645e-05	0.0001422185
-0.0001033454	1.19452e-05	0.0001064297
2.40249e-05	1.25051e-05	4.12551e-05
0.0001498744	9.6592e-06	0.0001066078
-9.21857e-05	0.0001141891	0.0001416372
2.21858e-05	0.0001301676	7.43359e-05
0.0001375517	0.0001121161	0.0001414443
0.0002822194	0.0002393198	0.0001421755
2.24149e-05	0.0002246932	-3.90348e-05
-0.0002379344	0.0002374853	0.0001411103
0.0002598508	1.43314e-05	7.1966e-06
2.21995e-05	1.26529e-05	-0.0001718433
-0.0002148777	1.22158e-05	8.1568e-06
0.000284575	-0.0002112865	0.0001403836
2.41057e-05	-0.0001986855	-4.01338e-05
-0.0002365263	-0.0002136298	0.0001393907

VECTORS	a 	float 
0.0	0.0	0.0
0.8966396965	0.0	0.0
1.7922345675	0.0	0.0
0.0	0.7184408341	0.0
0.8922213466	0.7134644749	0.0
1.7853283986	0.7183515905	0.0
0.0	1.4348427072	0.0
0.8976922162	1.4284286389	0.0
1.794825671	1.4346666514	0.0
0.0018667854	0.0032550332	-3.0782871134
0.8939142795	-0.0011294205	-3.083143919
1.7863162719	0.0024783961	-3.0785369943
-0.0007283945	0.7158469778	-3.0798599614
0.8952815956	0.716590341	-3.0830999665
1.7909205104	0.7151536079	-3.0796110723
0.0022131786	1.4289890841	-3.0786041307
0.8943660009	1.4338336065	-3.0837679479
1.7867193187	1.4283785126	-3.0787911542
-0.0043913699	-0.0026080987	-6.1564194786
0.8946636895	-0.0104021445	-6.1735443074
1.7936274164	-0.0031544762	-6.1568714504
-0.0141591539	0.7169204513	-6.166893586
0.8944429861	0.7162348832	-6.1815531937
1.8031767428	0.7163002569	-6.166434064
-0.0037158614	1.4363379528	-6.1570913028
0.8951557177	1.4430044002	-6.1737310956
1.7940252362	1.4356451857	-6.1574999142

SCALARS	theta	float 1
LOOKUP_TABLE	default
296.9868011156
297.0189087277
296.9882140183
296.9933726245
297.0208956763
296.9947017675
296.9912658593
297.0145018574
296.9908743176
303.128876171
303.2352811057
303.1283360709
303.1867060669
303.2937621646
303.1863664198
303.1282051331
303.2362438198
303.1282493444
317.5702304728
317.7724476669
317.5703057015
317.6851842758
317.8876258581
317.6852540244
317.5706107385
317.7723969728
317.5704896645

SCALARS	sig_11	float	1
LOOKUP_TABLE	default
4.9541905412
20.4044951455
6.2041550974
16.3025375194
30.0177061206
15.7519949441
5.4849311342
18.5866824009
5.5296783522
3.5211413672
11.0799674153
3.4372111385
9.9391480622
17.6869391831
9.9722639005
3.1521585756
10.8873014988
3.137704008
-41.1976952755
-38.7783031585
-41.1754919795
-38.5889415999
-36.1222627443
-38.5965273081
-41.1299137425
-38.7536034153
-41.1230277107

SCALARS	sig_22	float	1
LOOKUP_TABLE	default
-0.0451681459
14.3502576316
1.0031529755
12.260735319
24.0792722925
12.3059276586
2.3997050594
12.0898320925
2.4906421875
2.1530078869
7.4347888716
2.0873316218
8.8882207712
14.4220136917
8.894911635
1.9329488722
7.5587750482
1.9362875181
-31.4491124389
-29.6304534727
-31.4357888364
-28.6252884947
-26.7880186647
-28.6189017876
-31.367843667
-29.6793866479
-31.3728248223

SCALARS	sig_33	float	1
LOOKUP_TABLE	default
12.2923006926
49.7924589578
12.9648185235
39.2005686031
75.4582346698
38.993086829
13.3221836972
48.7330593106
13.3087314122
6.7530520883
30.2561323425
6.6845708132
24.6754099777
48.4248543992
24.6776973317
6.6302907539
30.3195979225
6.6125325292
-109.6865008328
-97.7522035874
-109.7260962158
-99.931167445
-87.7756661514
-99.9085130676
-109.6959351732
-97.7257120639
-109.6710401207

SCALARS vonMises	float	1
LOOKUP_TABLE	default
63.6341227492
48.5019443768
63.0293960804
54.6252695055
42.0410251833
54.9299823287
62.9792606986
50.1420640093
63.0903154667
72.6497536019
69.1782122451
72.6739774857
70.2408810271
66.776154359
70.2413548633
72.6923824625
69.0831506758
72.7028522837
97.7326352472
93.7054496741
97.8619792576
95.3603807094
91.4344784329
95.3182687043
97.9579167945
93.6066454632
97.9428026822
