# vtk DataFile Version 2.0
Results
ASCII
DATASET UNSTRUCTURED_GRID
POINTS         27           float
0.0	0.0	0.0	
50.0	0.0	0.0	
100.0	0.0	0.0	
0.0	40.0	0.0	
50.0	40.0	0.0	
100.0	40.0	0.0	
0.0	80.0	0.0	
50.0	80.0	0.0	
100.0	80.0	0.0	
0.0	0.0	70.0	
50.0	0.0	70.0	
100.0	0.0	70.0	
0.0	40.0	70.0	
50.0	40.0	70.0	
100.0	40.0	70.0	
0.0	80.0	70.0	
50.0	80.0	70.0	
100.0	80.0	70.0	
0.0	0.0	140.0	
50.0	0.0	140.0	
100.0	0.0	140.0	
0.0	40.0	140.0	
50.0	40.0	140.0	
100.0	40.0	140.0	
0.0	80.0	140.0	
50.0	80.0	140.0	
100.0	80.0	140.0	

CELLS	8	72
 8	0	1	4	3	9	10	13	12	
 8	1	2	5	4	10	11	14	13	
 8	4	5	8	7	13	14	17	16	
 8	3	4	7	6	12	13	16	15	
 8	9	10	13	12	18	19	22	21	
 8	10	11	14	13	19	20	23	22	
 8	13	14	17	16	22	23	26	25	
 8	12	13	16	15	21	22	25	24	

CELL_TYPES	8
 12
 12
 12
 12
 12
 12
 12
 12

POINT_DATA	27
VECTORS	u 	float 
0.0	0.0	0.0
-0.0084042435	0.0	0.0
-0.0165279726	0.0	0.0
0.0	-0.0032841648	0.0
-0.0084835473	-0.0033096117	0.0
-0.0171500656	-0.0030153578	0.0
0.0	-0.0052814725	0.0
-0.0086668701	-0.0076839209	0.0
-0.0174260247	-0.0049011118	0.0
-0.00036435	0.0077488301	-0.0278708376
-0.0083708591	0.0112166966	-0.0040318225
-0.0164538514	0.0081153917	-0.0278862013
-0.0004437997	-0.0033828565	-0.0127816744
-0.0085108297	-0.0032869357	0.010798365
-0.0165382289	-0.0030675653	-0.012838987
-0.00051965	-0.0148137607	-0.0277614241
-0.0086329435	-0.0174948629	-0.0039349968
-0.0167307342	-0.0145005855	-0.0278077469
-0.138365747	-0.1178030363	0.0246061689
-0.0083559659	-0.1150919514	0.0801948496
0.1216957364	-0.1175020515	0.0245487873
-0.138178379	-0.003519658	0.067445764
-0.0084734224	-0.0033181771	0.1231148895
0.1212128773	-0.0031959551	0.0674165354
-0.1386725769	0.1109059694	0.0246737161
-0.0086004119	0.1083150271	0.0803234201
0.1214661288	0.1112206815	0.0246306744

VECTORS	v 	float 
0.0	0.0	0.0
-0.0002166551	0.0	0.0
-0.0004297347	0.0	0.0
0.0	-0.0002635083	0.0
-0.0002191209	-0.0002668872	0.0
-0.0004408298	-0.0002648636	0.0
0.0	-0.0005324171	0.0
-0.0002134772	-0.0005299822	0.0
-0.0004231485	-0.0005353426	0.0
-0.0006416196	-0.000673114	0.0001205971
-0.000218483	-0.0007201535	7.98628e-05
0.0002040464	-0.0006757191	0.0001208108
-0.0006399042	-0.0002645798	0.0001159665
-0.00021673	-0.000264768	8.60507e-05
0.0002070297	-0.0002671219	0.0001167822
-0.0006398994	0.0001453885	0.0001197506
-0.0002166732	0.0001893189	7.84347e-05
0.0002058035	0.0001428751	0.0001199566
0.0003926382	0.0003541008	0.0003853209
-0.0002183831	0.0002761491	-4.10816e-05
-0.0008290137	0.0003516775	0.0003851494
0.0003816847	-0.0002629528	9.9882e-06
-0.0002176655	-0.0002646037	-0.0004053477
-0.0008174634	-0.0002653816	1.10801e-05
0.0003948086	-0.0008805909	0.000384024
-0.0002164256	-0.0008047606	-4.19732e-05
-0.0008271571	-0.0008829724	0.0003839098

VECTORS	a 	float 
0.0	0.0	0.0
0.8955642121	0.0	0.0
1.7904508549	0.0	0.0
0.0	0.7169153254	0.0
0.8938615689	0.7159840508	0.0
1.7882704257	0.7170858448	0.0
0.0	1.4330889248	0.0
0.8962036368	1.4324354031	0.0
1.7917808689	1.4334123509	0.0
0.002073952	0.0031740912	-3.0800531919
0.8945838887	0.0016848013	-3.0822860934
1.7873196648	0.0029094649	-3.0801489428
0.0008520461	0.7165524523	-3.0805131385
0.8951233559	0.7166707789	-3.0827738051
1.7891881817	0.7162868576	-3.0805538715
0.0022215638	1.4301365101	-3.0801661518
0.8947001611	1.4315172507	-3.0826309738
1.7873807645	1.4298777215	-3.0802463603
-0.0041257107	-0.00326281	-6.1589389613
0.8949156548	-0.0045462652	-6.1632728725
1.7939336816	-0.0034574606	-6.1592362947
-0.0066725805	0.7168840793	-6.1611730155
0.894835295	0.7167017276	-6.1649527569
1.7963733799	0.7166662163	-6.1609892844
-0.0038854648	1.4370030887	-6.1592154934
0.8951099024	1.4379660671	-6.1633973527
1.7940976611	1.4367551262	-6.1594941094

SCALARS	theta	float 1
LOOKUP_TABLE	default
299.974675518
299.8474200115
299.9650411572
299.9066133133
299.7745544694
299.9097712656
299.9790570108
299.8468241531
299.975800042
297.0745039035
297.0896297825
297.0748028688
297.1732829775
297.1867672911
297.1719469673
297.0736038222
297.092628995
297.0744608707
326.6028205648
326.803707244
326.6033063154
326.8941625034
327.0958206499
326.895011617
326.6042916019
326.8017744948
326.6035653291

SCALARS	sig_11	float	1
LOOKUP_TABLE	default
-54.1276604395
-31.980494065
-52.9056545046
-40.0048287247
-19.7432784273
-40.2315023894
-53.5593739419
-34.4292984607
-53.8417750512
47.4129753464
66.940319935
47.3404034383
63.038832739
82.7217767295
63.0524496832
46.9493367392
66.6751173188
46.9529428402
-111.5854525678
-91.6747732512
-111.578603904
-94.4414974295
-74.4579981802
-94.4431746747
-111.5029589302
-91.6261246731
-111.507639768

SCALARS	sig_22	float	1
LOOKUP_TABLE	default
-49.2883047743
-28.9807914892
-47.85805069
-33.9655757899
-16.8901882763
-33.5221701692
-46.2088142719
-31.9247676964
-45.9808002851
37.2183395521
50.7643294561
37.177700007
53.2708225302
67.0770241156
53.2944999748
36.9423873189
50.9114211337
36.9778876553
-87.9199659425
-73.9575244535
-87.9260658496
-69.8983187072
-55.908833369
-69.8992968452
-87.8205947936
-74.0078975384
-87.8427841268

SCALARS	sig_33	float	1
LOOKUP_TABLE	default
-69.1759338148
-19.7413501156
-68.3613159577
-37.4415375309
10.2377188171
-37.4964967
-67.8788721692
-21.1675219519
-67.9867157316
74.7470004099
125.9805231079
74.6695362487
115.2004712523
166.5617085646
115.1805272514
74.6102405032
126.049591634
74.5778480123
-263.6957923382
-207.6399372414
-263.7564422668
-214.1489587728
-157.8382540265
-214.1177337715
-263.701338548
-207.5922883586
-263.6849613784

SCALARS vonMises	float	1
LOOKUP_TABLE	default
46.2194578228
48.4375222092
47.0893688754
34.8370553317
41.1677168004
34.8877008589
48.682922378
47.8768765543
48.6373138789
177.3235480534
154.3346541247
177.7691017588
149.2614722188
119.9710925132
149.2258198887
178.1102106501
153.5133785217
178.0332989339
202.9535678337
182.090745404
203.0774701177
190.5736075112
171.1170498704
190.5565548103
203.2300963862
181.9544492091
203.1838081926
