# vtk DataFile Version 2.0
Results
ASCII
DATASET UNSTRUCTURED_GRID
POINTS         27           float
0.0	0.0	0.0	
50.0	0.0	0.0	
100.0	0.0	0.0	
0.0	40.0	0.0	
50.0	40.0	0.0	
100.0	40.0	0.0	
0.0	80.0	0.0	
50.0	80.0	0.0	
100.0	80.0	0.0	
0.0	0.0	70.0	
50.0	0.0	70.0	
100.0	0.0	70.0	
0.0	40.0	70.0	
50.0	40.0	70.0	
100.0	40.0	70.0	
0.0	80.0	70.0	
50.0	80.0	70.0	
100.0	80.0	70.0	
0.0	0.0	140.0	
50.0	0.0	140.0	
100.0	0.0	140.0	
0.0	40.0	140.0	
50.0	40.0	140.0	
100.0	40.0	140.0	
0.0	80.0	140.0	
50.0	80.0	140.0	
100.0	80.0	140.0	

CELLS	8	72
 8	0	1	4	3	9	10	13	12	
 8	1	2	5	4	10	11	14	13	
 8	4	5	8	7	13	14	17	16	
 8	3	4	7	6	12	13	16	15	
 8	9	10	13	12	18	19	22	21	
 8	10	11	14	13	19	20	23	22	
 8	13	14	17	16	22	23	26	25	
 8	12	13	16	15	21	22	25	24	

CELL_TYPES	8
 12
 12
 12
 12
 12
 12
 12
 12

POINT_DATA	27
VECTORS	u 	float 
0.0	0.0	0.0
-0.0147025853	0.0	0.0
-0.0289778082	0.0	0.0
0.0	-0.0117617688	0.0
-0.0147369087	-0.0117933232	0.0
-0.0297715407	-0.011554214	0.0
0.0	-0.0224024401	0.0
-0.0149061284	-0.0245214744	0.0
-0.0297404992	-0.0221452723	0.0
-0.0230094919	-0.0166640075	-0.0210968816
-0.0146575589	-0.0146513501	0.0004421114
-0.0064125438	-0.0163712512	-0.0210950356
-0.0229330675	-0.011842977	-0.0066825703
-0.0147778077	-0.0117726207	0.0148617245
-0.0065512855	-0.0115958805	-0.0067146972
-0.0231178714	-0.007281206	-0.0210084601
-0.0148642165	-0.0086396401	0.0005143577
-0.006633296	-0.0070345573	-0.0210385129
-0.1187395853	-0.1006796767	0.0414762923
-0.0146618759	-0.1002174805	0.0790720578
0.0894685593	-0.1004463626	0.0414389155
-0.118693986	-0.0119526128	0.0689110516
-0.0147484731	-0.0117917708	0.1067896386
0.0891635669	-0.0116976367	0.0688996229
-0.1189866308	0.0768968421	0.0415225506
-0.0148528478	0.07651517	0.0791748679
0.089291352	0.0771455287	0.0414995504

VECTORS	v 	float 
0.0	0.0	0.0
-3.15245e-05	0.0	0.0
-6.08235e-05	0.0	0.0
0.0	-6.87487e-05	0.0
-3.8904e-05	-8.44574e-05	0.0
-7.95076e-05	-7.10277e-05	0.0
0.0	-0.0001428252	0.0
-3.08473e-05	-0.0001643671	0.0
-5.76392e-05	-0.000147152	0.0
-0.000240762	-0.0002821694	0.0001275684
-3.67334e-05	-0.0003041633	8.16119e-05
0.0001668257	-0.0002844402	0.000127297
-0.0002411974	-7.76302e-05	0.0001084422
-3.42707e-05	-7.54505e-05	7.20731e-05
0.000172973	-7.94635e-05	0.0001100958
-0.0002397518	0.0001282009	0.0001268492
-3.50239e-05	0.0001518137	8.11248e-05
0.000168692	0.0001266719	0.0001267042
0.000336499	0.000288849	0.0002531183
-3.59347e-05	0.0002432144	-4.6742e-05
-0.0004084343	0.0002871144	0.0002534391
0.0003091333	-7.50404e-05	1.26424e-05
-3.60299e-05	-7.71488e-05	-0.0002786949
-0.0003810771	-7.69389e-05	1.35502e-05
0.0003383464	-0.0004393969	0.0002520819
-3.45738e-05	-0.0003968749	-4.69664e-05
-0.0004072539	-0.0004413478	0.000252422

VECTORS	a 	float 
0.0	0.0	0.0
0.8967457003	0.0	0.0
1.7927950907	0.0	0.0
0.0	0.7175934375	0.0
0.8936124191	0.7143588726	0.0
1.7878059869	0.7175999056	0.0
0.0	1.4338702746	0.0
0.897545362	1.4296482889	0.0
1.7946455464	1.4338797598	0.0
0.0029945014	0.0027575358	-3.0795982767
0.8948398037	-0.0001977567	-3.0827603635
1.7869300663	0.0022463482	-3.0797768809
0.0012297061	0.7159339237	-3.080321741
0.8957981798	0.7164111213	-3.0824895665
1.7901175057	0.7154650752	-3.0801863026
0.0032438047	1.4294677349	-3.0798062025
0.895123712	1.4327290775	-3.0832118431
1.7871670682	1.4290428844	-3.0799464777
-0.003977637	-0.0026714503	-6.1565165487
0.8953792718	-0.0079659042	-6.1687732147
1.7946921814	-0.0030386099	-6.1568738231
-0.0105193054	0.716647201	-6.1640668093
0.8952215224	0.7162028016	-6.1746411391
1.8010300558	0.7162354905	-6.1637405161
-0.0035355895	1.4359013188	-6.1569712195
0.8957142064	1.4404407478	-6.1689126034
1.7949681904	1.4354432009	-6.1572984415

SCALARS	theta	float 1
LOOKUP_TABLE	default
297.4896419543
297.4815230621
297.4879522316
297.4714022876
297.4588989021
297.47423793
297.4950151954
297.4771447181
297.4933921988
301.1702486226
301.309056139
301.1697116904
301.2704486043
301.409377085
301.2696035358
301.1696933796
301.3106006643
301.1699454251
320.7660774063
321.0900294157
320.7664256836
320.9979413924
321.3224290571
320.9982951435
320.7665372036
321.089681637
320.7663035883

SCALARS	sig_11	float	1
LOOKUP_TABLE	default
-12.1283499845
5.570962884
-10.8300454345
0.3853411179
16.2462798404
-0.1203023723
-11.5788950761
3.5364050219
-11.6034991634
17.696930823
28.0685060766
17.6146572272
26.4054551562
36.9687227026
26.4365085001
17.2874985898
27.85179404
17.2774018852
-62.4920776352
-56.6366165662
-62.4739003271
-56.7182852287
-50.8082650457
-56.7254837771
-62.4161162625
-56.6064161134
-62.4120684058

SCALARS	sig_22	float	1
LOOKUP_TABLE	default
-14.4583477425
1.9954785084
-13.2706223491
-0.888432621
12.7250503384
-0.7598493725
-11.7704925445
-0.5141615879
-11.635359858
13.4559814445
20.7057136774
13.3961720041
22.5563658341
30.0724458832
22.5684296838
13.2116183065
20.8404945859
13.2237832838
-48.477947503
-44.2711067242
-48.4698434297
-42.2473886541
-38.0186728229
-42.2431593547
-48.3879513108
-44.3231837759
-48.3975306685

SCALARS	sig_33	float	1
LOOKUP_TABLE	default
-11.1198834457
31.1427364022
-10.3802175751
18.2484379738
59.1023713661
18.0558953341
-9.9940993728
29.961489211
-10.0232603689
28.2220565333
60.1410314981
28.1525949183
53.0569227943
85.211126362
53.0558940157
28.0880829674
60.2092095571
28.067624158
-159.6012605868
-135.4767782127
-159.6491570999
-138.5866848169
-114.2211882464
-138.5629105478
-159.6082522512
-135.4447353169
-159.5850296679

SCALARS vonMises	float	1
LOOKUP_TABLE	default
38.7532891459
31.9447588564
38.2489789537
37.7941106644
38.4383079658
38.0837382192
38.5764470619
33.878141017
38.7568322219
97.6844812518
92.7182094829
97.9953063081
91.6038873967
83.7967218599
91.5576664798
98.1721817682
92.3253949362
98.165071005
133.4340062862
124.6725912074
133.5679669576
128.1604002099
119.8567646766
128.1240707938
133.6791918594
124.5601523185
133.6563962905
