# vtk DataFile Version 2.0
Results
ASCII
DATASET UNSTRUCTURED_GRID
POINTS         27           float
0.0	0.0	0.0	
50.0	0.0	0.0	
100.0	0.0	0.0	
0.0	40.0	0.0	
50.0	40.0	0.0	
100.0	40.0	0.0	
0.0	80.0	0.0	
50.0	80.0	0.0	
100.0	80.0	0.0	
0.0	0.0	70.0	
50.0	0.0	70.0	
100.0	0.0	70.0	
0.0	40.0	70.0	
50.0	40.0	70.0	
100.0	40.0	70.0	
0.0	80.0	70.0	
50.0	80.0	70.0	
100.0	80.0	70.0	
0.0	0.0	140.0	
50.0	0.0	140.0	
100.0	0.0	140.0	
0.0	40.0	140.0	
50.0	40.0	140.0	
100.0	40.0	140.0	
0.0	80.0	140.0	
50.0	80.0	140.0	
100.0	80.0	140.0	

CELLS	8	72
 8	0	1	4	3	9	10	13	12	
 8	1	2	5	4	10	11	14	13	
 8	4	5	8	7	13	14	17	16	
 8	3	4	7	6	12	13	16	15	
 8	9	10	13	12	18	19	22	21	
 8	10	11	14	13	19	20	23	22	
 8	13	14	17	16	22	23	26	25	
 8	12	13	16	15	21	22	25	24	

CELL_TYPES	8
 12
 12
 12
 12
 12
 12
 12
 12

POINT_DATA	27
VECTORS	u 	float 
0.0	0.0	0.0
0.0035324322	0.0	0.0
0.007069742	0.0	0.0
0.0	0.0046780247	0.0
0.0035012477	0.0046400642	0.0
0.0069943303	0.0047465907	0.0
0.0	0.0096183494	0.0
0.0034567403	0.0090749321	0.0
0.0068473683	0.0097366906	0.0
0.0093549015	0.0109970579	-0.009264567
0.003532669	0.0123630221	-0.0051717907
-0.0022925306	0.011091687	-0.0092763411
0.0095240707	0.0046301779	-0.0068619556
0.0034991045	0.0046643241	-0.0029806658
-0.0025256855	0.0047160447	-0.0068845971
0.0093088074	-0.0017984498	-0.0092414625
0.0034637922	-0.0029724871	-0.0051337148
-0.0023666737	-0.0017145057	-0.0092568349
-0.0250487026	-0.0216273022	-0.0092251522
0.0035448396	-0.0197941894	0.0044789214
0.03214215	-0.0215439994	-0.0092443523
-0.0245018866	0.0045974468	0.0018630508
0.0035114508	0.004646552	0.015440658
0.0315238366	0.0046831378	0.0018496423
-0.0251296944	0.0308498228	-0.0091981643
0.0034783181	0.0290584471	0.0045114471
0.032081175	0.0309330266	-0.0092156414

VECTORS	v 	float 
0.0	0.0	0.0
0.0023531784	0.0	0.0
0.004705289	0.0	0.0
0.0	0.0019920936	0.0
0.0023550062	0.0019986722	0.0
0.0047107762	0.0019969677	0.0
0.0	0.0040013074	0.0
0.0023491278	0.0039835283	0.0
0.0046925025	0.0040096403	0.0
0.0005395525	0.0006466827	-0.0080476011
0.0023556642	0.0007213359	-0.0077911379
0.0041719028	0.0006526737	-0.0080480454
0.000535288	0.0019945692	-0.0078989653
0.0023528017	0.001995097	-0.0076563011
0.0041700248	0.00199988	-0.0079009317
0.0005366672	0.0033383299	-0.0080459314
0.0023512263	0.0032730588	-0.0077894008
0.0041671052	0.0033434776	-0.0080466491
-0.0016765337	-0.0014465315	-0.0154384505
0.0023559204	-0.0013439876	-0.0145757465
0.0063885592	-0.0014413505	-0.0154396319
-0.0016601248	0.0019915645	-0.0147379796
0.002354179	0.0019952853	-0.0138835268
0.0063684887	0.0019969487	-0.0147390913
-0.0016815868	0.0054315912	-0.0154367741
0.0023518103	0.0053325291	-0.0145740794
0.0063847681	0.0054368137	-0.0154378299

VECTORS	a 	float 
0.0	0.0	0.0
0.1301798383	0.0	0.0
0.2603467107	0.0	0.0
0.0	0.1044453367	0.0
0.1301474476	0.1044011717	0.0
0.2603047962	0.10445552	0.0
0.0	0.2089079956	0.0
0.1301780701	0.2087887651	0.0
0.260337504	0.2089259614	0.0
0.001608121	0.0018484665	-0.4474976453
0.1301627571	0.0020299083	-0.4469791387
0.258721398	0.0018557843	-0.4475014263
0.0016333442	0.1044185093	-0.4471957656
0.130167574	0.1044298506	-0.4467021553
0.258697534	0.1044254279	-0.4471979572
0.0016038557	0.2069856914	-0.4474977394
0.1301563114	0.2068332742	-0.4469785539
0.2587136168	0.2069930953	-0.4475015061
-0.0036414912	-0.003128883	-0.8936775925
0.1301699862	-0.0028678263	-0.8918129946
0.2639809453	-0.0031207794	-0.8936852868
-0.0035708315	0.104423159	-0.892154911
0.1301638899	0.1044243631	-0.8902937559
0.2638998636	0.1044306968	-0.8921527818
-0.0036473702	0.2119778388	-0.8936809471
0.1301642122	0.2117140193	-0.8918085293
0.2639749588	0.2119841484	-0.8936879678

SCALARS	theta	float 1
LOOKUP_TABLE	default
301.2885744322
301.1612871485
301.28231506
301.239660987
301.1440386197
301.2369813204
301.2646188172
301.186281233
301.2678808712
298.2889656231
298.0837594154
298.2904079552
298.0899693085
297.8812126806
298.0905948139
298.2952584489
298.0787652436
298.2945087776
306.2487376425
305.8959055462
306.2484577043
305.8874450614
305.5330161221
305.886921612
306.2458902158
305.898004587
306.2463847549

SCALARS	sig_11	float	1
LOOKUP_TABLE	default
-26.3678778872
-19.6825871122
-26.1268196556
-22.2602815206
-16.3648768803
-22.1767170303
-25.9767684238
-20.5760917916
-26.1708038383
14.6724891621
24.3501047741
14.6515949762
24.0580776799
33.7213004041
24.0492216175
14.5389023877
24.3030898154
14.547947137
-41.5163218101
-27.3780126499
-41.5159905184
-26.9055209241
-12.7195049918
-26.8972228146
-41.4715848788
-27.3791554465
-41.4812752973

SCALARS	sig_22	float	1
LOOKUP_TABLE	default
-22.7941954164
-16.8021239663
-22.403561173
-18.3398477431
-13.446992794
-18.0933356858
-21.8436284239
-17.7283361437
-21.8067495278
11.0651654649
18.2641948468
11.0546914685
20.8332119904
28.0457690421
20.8367223947
10.9783848044
18.3166436876
10.9967111101
-34.4000484301
-23.6546715218
-34.4054633218
-18.9824650454
-8.1982434686
-18.9773133433
-34.358068377
-23.6796873566
-34.3738372135

SCALARS	sig_33	float	1
LOOKUP_TABLE	default
-47.8166908303
-36.4922302169
-47.6013946151
-40.8621086587
-30.4356220383
-40.783191659
-47.2283886694
-37.1176160276
-47.3341303446
12.5251073536
30.0526054001
12.492271875
28.6474240476
46.1199597514
28.6277991587
12.4762163134
30.0887012074
12.4666972721
-95.0156456536
-69.7948026946
-95.0256503346
-69.584641851
-44.2697470866
-69.5650855258
-94.9806141147
-69.8101348926
-94.9881450106

SCALARS vonMises	float	1
LOOKUP_TABLE	default
40.278794467
33.6002166935
40.4290173483
30.919525898
19.9956357109
30.966144967
40.6658461295
33.2631635636
40.6153967793
58.562505401
46.4580749906
58.6455246005
45.0299373635
27.4877172077
45.0486629178
58.721655768
46.2314781927
58.6912194936
60.9376264356
51.3893587988
60.9538828433
54.2321857563
44.4709476789
54.2296601365
60.9954063693
51.3590377379
60.9805900969
