# vtk DataFile Version 2.0
Results
ASCII
DATASET UNSTRUCTURED_GRID
POINTS         27           float
0.0	0.0	0.0	
50.0	0.0	0.0	
100.0	0.0	0.0	
0.0	40.0	0.0	
50.0	40.0	0.0	
100.0	40.0	0.0	
0.0	80.0	0.0	
50.0	80.0	0.0	
100.0	80.0	0.0	
0.0	0.0	70.0	
50.0	0.0	70.0	
100.0	0.0	70.0	
0.0	40.0	70.0	
50.0	40.0	70.0	
100.0	40.0	70.0	
0.0	80.0	70.0	
50.0	80.0	70.0	
100.0	80.0	70.0	
0.0	0.0	140.0	
50.0	0.0	140.0	
100.0	0.0	140.0	
0.0	40.0	140.0	
50.0	40.0	140.0	
100.0	40.0	140.0	
0.0	80.0	140.0	
50.0	80.0	140.0	
100.0	80.0	140.0	

CELLS	8	72
 8	0	1	4	3	9	10	13	12	
 8	1	2	5	4	10	11	14	13	
 8	4	5	8	7	13	14	17	16	
 8	3	4	7	6	12	13	16	15	
 8	9	10	13	12	18	19	22	21	
 8	10	11	14	13	19	20	23	22	
 8	13	14	17	16	22	23	26	25	
 8	12	13	16	15	21	22	25	24	

CELL_TYPES	8
 12
 12
 12
 12
 12
 12
 12
 12

POINT_DATA	27
VECTORS	u 	float 
0.0	0.0	0.0
-0.0101620715	0.0	0.0
-0.0200064056	0.0	0.0
0.0	-0.0054727944	0.0
-0.0102318754	-0.0055027626	0.0
-0.0206744489	-0.0052191796	0.0
0.0	-0.009695901	0.0
-0.0104104294	-0.0120417832	0.0
-0.0208721456	-0.0093470303	0.0
-0.0056918387	0.0020924389	-0.0267578991
-0.0101266895	0.0051762836	-0.003309339
-0.0146461467	0.0024410659	-0.0267689933
-0.0057439171	-0.0055691158	-0.01174283
-0.0102616189	-0.0054787726	0.0115237249
-0.0147320389	-0.005270677	-0.011792957
-0.0058357067	-0.0135203839	-0.0266531683
-0.0103751335	-0.0158479703	-0.0032190861
-0.0149088379	-0.0132235378	-0.0266955997
-0.1348261153	-0.114633952	0.0281129059
-0.0101167998	-0.1125555426	0.0799837021
0.1146373139	-0.1143498838	0.0280607136
-0.1347021522	-0.0056987257	0.0677140963
-0.0102267758	-0.0055075209	0.1197284321
0.114226543	-0.00539191	0.0676896094
-0.1351180807	0.1033739933	0.0281747203
-0.0103480195	0.1014052581	0.0801064683
0.1144203957	0.1036725052	0.0281369713

VECTORS	v 	float 
0.0	0.0	0.0
-0.000180887	0.0	0.0
-0.0003568803	0.0	0.0
0.0	-0.000227006	0.0
-0.0001718563	-0.0002145686	0.0
-0.0003476206	-0.0002276529	0.0
0.0	-0.0004535661	0.0
-0.0001808884	-0.0004295615	0.0
-0.0003579209	-0.0004550033	0.0
-0.0005537089	-0.0005867683	0.0001179864
-0.0001755096	-0.0006155269	8.40083e-05
0.0002014578	-0.0005868267	0.0001189618
-0.0005453697	-0.0002197783	0.0001132466
-0.0001775359	-0.0002222068	8.19516e-05
0.0001916267	-0.0002199986	0.0001129265
-0.0005532603	0.0001470346	0.00011815
-0.0001752837	0.0001712244	8.43576e-05
0.0002017182	0.0001466057	0.0001189471
0.000383982	0.0003391969	0.0003556836
-0.0001772141	0.000297349	3.5704e-06
-0.0007379068	0.0003388239	0.0003567822
0.0004022726	-0.0002215113	4.18639e-05
-0.0001761365	-0.0002208856	-0.0003100096
-0.0007552398	-0.0002217215	4.133e-05
0.0003838514	-0.0007824642	0.000356507
-0.0001770272	-0.0007389384	3.1165e-06
-0.0007375268	-0.0007824523	0.0003575267

VECTORS	a 	float 
0.0	0.0	0.0
-0.8955819106	0.0	0.0
-1.7903963258	0.0	0.0
0.0	-0.7169302742	0.0
-0.893660182	-0.7159286017	0.0
-1.7879396026	-0.7171270023	0.0
0.0	-1.4330232761	0.0
-0.8963096307	-1.432382744	0.0
-1.7919052549	-1.4333970706	0.0
-0.0019983256	-0.0032529004	3.0797631474
-0.8944768974	-0.0014891354	3.0823850039
-1.7872115196	-0.0029553159	3.0798712026
-0.0005598701	-0.7165508018	3.080342635
-0.895085998	-0.7166754823	3.0829988928
-1.7893793892	-0.716250638	3.0803926273
-0.0021657745	-1.4300805361	3.0798925551
-0.8946070766	-1.4317058919	3.0827742191
-1.7872788945	-1.4297861803	3.0799819002
0.0042451859	0.0033269598	6.1587953711
-0.8948526998	0.0048817867	6.1640679543
-1.7939248501	0.0035463914	6.1591330596
0.0072056716	-0.7169195887	6.1616967091
-0.8947621617	-0.7167167413	6.1663490399
-1.7967623721	-0.7166745717	6.1614900782
0.0039768063	-1.4371333153	6.1591056798
-0.8950709949	-1.4383339638	6.1642125542
-1.7941101296	-1.4368551894	6.1594213134

SCALARS	theta	float 1
LOOKUP_TABLE	default
299.3432118266
299.2480234714
299.3352839505
299.2858477049
299.1847866198
299.2897193225
299.3495571457
299.2448463952
299.3459761098
297.954405964
298.0223427897
297.9544335116
298.0751593337
298.1419969261
298.0737394239
297.9533153175
298.0252595798
297.9541628059
325.3458887124
325.6285284545
325.3463847732
325.6705799414
325.9540510991
325.6714299791
325.3471849199
325.6269394365
325.3465034454

SCALARS	sig_11	float	1
LOOKUP_TABLE	default
-44.4218133805
-23.3968881737
-43.1776339744
-30.7155537146
-11.5534561492
-31.0157909586
-43.8708826411
-25.7286213971
-44.0863848935
41.2304911075
58.2392874653
41.1566697459
54.8555428886
72.0300557225
54.8737495836
40.7787126323
57.9854059208
40.779317282
-99.939348007
-84.0806738851
-99.9302847167
-86.2224689594
-70.2954208149
-86.2258947066
-99.8581358298
-84.0366372397
-99.8606874294

SCALARS	sig_22	float	1
LOOKUP_TABLE	default
-41.2436855613
-21.8833950068
-39.8670517727
-26.3799053104
-10.1525492093
-26.0194125075
-38.2673958299
-24.7124028927
-38.055669217
32.3096351854
44.1014507203
32.2652124229
46.3293905392
58.3839284893
46.3502861894
32.0408689555
44.2453479752
32.0708417543
-78.4589863865
-67.3705278904
-78.462161656
-63.9995933724
-52.8849065898
-63.9994019674
-78.3617734255
-67.4214023058
-78.3808990948

SCALARS	sig_33	float	1
LOOKUP_TABLE	default
-55.7593755627
-7.9178508469
-54.9594023416
-24.5286819715
21.65645312
-24.6246777653
-54.5177322323
-9.2692600134
-54.6001467239
64.7840557972
111.4117684897
64.7100637924
101.3944776689
148.1806786953
101.3796183607
64.6468757806
111.4802436622
64.6177660125
-240.4201074761
-192.1948042693
-240.4790477319
-198.0247507945
-149.5445405308
-197.9956244696
-240.4264215343
-192.1501532977
-240.408562582

SCALARS vonMises	float	1
LOOKUP_TABLE	default
30.1148249434
36.6090384468
31.0171608816
25.2835867755
38.1021349176
25.4003482891
32.9411725707
36.5409282347
32.9889031513
158.3668615669
139.8707891752
158.8128272831
135.4795269431
111.8041815421
135.4330381325
159.1442686188
139.1233658673
159.0842727398
187.9712761938
170.0077499033
188.0984714805
177.3217757072
160.5627888053
177.3002259255
188.2400880065
169.8771005192
188.2000954382
