# vtk DataFile Version 2.0
Results
ASCII
DATASET UNSTRUCTURED_GRID
POINTS         27           float
0.0	0.0	0.0	
50.0	0.0	0.0	
100.0	0.0	0.0	
0.0	40.0	0.0	
50.0	40.0	0.0	
100.0	40.0	0.0	
0.0	80.0	0.0	
50.0	80.0	0.0	
100.0	80.0	0.0	
0.0	0.0	70.0	
50.0	0.0	70.0	
100.0	0.0	70.0	
0.0	40.0	70.0	
50.0	40.0	70.0	
100.0	40.0	70.0	
0.0	80.0	70.0	
50.0	80.0	70.0	
100.0	80.0	70.0	
0.0	0.0	140.0	
50.0	0.0	140.0	
100.0	0.0	140.0	
0.0	40.0	140.0	
50.0	40.0	140.0	
100.0	40.0	140.0	
0.0	80.0	140.0	
50.0	80.0	140.0	
100.0	80.0	140.0	

CELLS	8	72
 8	0	1	4	3	9	10	13	12	
 8	1	2	5	4	10	11	14	13	
 8	4	5	8	7	13	14	17	16	
 8	3	4	7	6	12	13	16	15	
 8	9	10	13	12	18	19	22	21	
 8	10	11	14	13	19	20	23	22	
 8	13	14	17	16	22	23	26	25	
 8	12	13	16	15	21	22	25	24	

CELL_TYPES	8
 12
 12
 12
 12
 12
 12
 12
 12

POINT_DATA	27
VECTORS	u 	float 
0.0	0.0	0.0
0.0010990069	0.0	0.0
0.0023358079	0.0	0.0
0.0	0.0068875755	0.0
0.0009912205	0.0068301563	0.0
0.0018936187	0.0071849631	0.0
0.0	0.0150641254	0.0
0.0007979197	0.0126114325	0.0
0.0013803931	0.015526412	0.0
0.0201435152	0.0284248331	-0.0319620194
0.0011202157	0.0331783748	-0.0094866051
-0.0179463521	0.0288272628	-0.0319941264
0.0202321968	0.006755498	-0.0182712732
0.0009723689	0.0068739915	0.0036240588
-0.0182731633	0.0071094306	-0.0183504379
0.0199588572	-0.0152160618	-0.0318485945
0.000829736	-0.0191302795	-0.0093623272
-0.0182540988	-0.014866437	-0.0319063495
-0.1341338855	-0.1148418568	0.0019060883
0.0011533382	-0.1096094697	0.064173837
0.1364694179	-0.114501047	0.0018340614
-0.1332310587	0.0066078015	0.0511875929
0.0010177619	0.006826238	0.1132253679
0.1352588185	0.0069675171	0.0511430031
-0.1344721395	0.1281996969	0.001994853
0.0008787473	0.1231185819	0.0643141177
0.1362124044	0.1285487718	0.0019349127

VECTORS	v 	float 
0.0	0.0	0.0
0.0021118295	0.0	0.0
0.0042238693	0.0	0.0
0.0	0.0017063933	0.0
0.0021076903	0.0017126448	0.0
0.0042155321	0.001710602	0.0
0.0	0.0034233056	0.0
0.0021126611	0.003415637	0.0
0.0042210076	0.0034300388	0.0
-0.0001117847	-3.09271e-05	-0.0079542307
0.0021106858	-1.10234e-05	-0.0077373531
0.004333317	-2.79597e-05	-0.0079545272
-0.0001188543	0.0017101292	-0.0078075119
0.0021106061	0.0017097334	-0.0075957141
0.0043398008	0.0017123409	-0.0078090155
-0.0001126404	0.0034488336	-0.0079534365
0.0021081862	0.0034332481	-0.0077379567
0.0043302875	0.0034507969	-0.007954045
-0.0013192451	-0.0011197359	-0.0150766588
0.0021117017	-0.0011044089	-0.0146133918
0.0055431589	-0.0011175176	-0.0150785777
-0.0013214909	0.0017088531	-0.0147236894
0.0021106031	0.0017109033	-0.0142599694
0.0055423079	0.0017113146	-0.0147235337
-0.0013216423	0.0045386492	-0.0150764901
0.0021100724	0.0045247949	-0.014613217
0.0055417298	0.004541018	-0.015078207

VECTORS	a 	float 
0.0	0.0	0.0
0.7932024473	0.0	0.0
1.5860368239	0.0	0.0
0.0	0.6352045878	0.0
0.7919835358	0.6339919398	0.0
1.5842748782	0.6352248833	0.0
0.0	1.269896204	0.0
0.793502657	1.2683523897	0.0
1.5867493675	1.2699299082	0.0
0.003600005	0.004095376	-2.727213553
0.7924655957	0.0034824142	-2.7278192901
1.5814511376	0.0039063211	-2.7272765424
0.0032190512	0.634588255	-2.7270904309
0.7928343118	0.6347717637	-2.7275339197
1.5823265772	0.6344182478	-2.7270504099
0.0036825501	1.2652230717	-2.7272800503
0.792566458	1.2659421629	-2.7280120811
1.5815319866	1.265076462	-2.7273349094
-0.0061799693	-0.0050594258	-5.4505940579
0.7926776478	-0.0059134951	-5.4514845916
1.5915083527	-0.0051896783	-5.4507371435
-0.0078481268	0.6348643317	-5.4501043803
0.7926122442	0.6347016433	-5.4505569169
1.5931130894	0.6347124705	-5.4499810743
-0.0060008741	1.2747703782	-5.4507789184
0.792805047	1.2753412427	-5.4515284026
1.5916063115	1.274593704	-5.4509145629

SCALARS	theta	float 1
LOOKUP_TABLE	default
302.6055275294
302.3128721817
302.5892439794
302.4824240058
302.2214261718
302.4799155697
302.5801211629
302.3435462548
302.5822569583
294.3360229722
294.0232882547
294.3381256899
294.1522349655
293.8347940714
294.1522111518
294.3421792423
294.0204832518
294.3419518132
328.4766927132
328.0577322692
328.4768080634
328.2037015849
327.7847096266
328.2037076253
328.4751552752
328.057847765
328.4751071012

SCALARS	sig_11	float	1
LOOKUP_TABLE	default
-86.5193146525
-61.0470499899
-85.4347580207
-71.0538335017
-47.8393327429
-70.9642935757
-85.6559892209
-63.9992505935
-86.21744703
62.0834699499
91.6823407682
62.0124279875
87.4663091084
117.1121158601
87.4556712502
61.5811717504
91.4156383369
61.6009725325
-148.6011816468
-110.5901547279
-148.6020056074
-113.3566050285
-75.2629257451
-113.3440385386
-148.4914725703
-110.5467325851
-148.5110148235

SCALARS	sig_22	float	1
LOOKUP_TABLE	default
-75.9464143884
-52.9007080866
-74.3936552538
-59.1289627121
-39.8014159081
-58.3578686584
-72.4961075407
-56.2477371472
-72.2679940064
48.3328991425
69.3444139528
48.3006224902
74.5929290924
95.7743807733
74.6178507428
48.0260973938
69.5130629543
48.0831956655
-119.5383675015
-91.9767990875
-119.5566222721
-82.357726051
-54.7621494897
-82.3533539836
-119.4173414844
-92.038416387
-119.458662424

SCALARS	sig_33	float	1
LOOKUP_TABLE	default
-126.7494267425
-75.5763494092
-125.9122291844
-95.2538570287
-46.5293702263
-95.1120866633
-125.0743400865
-77.4202636738
-125.3285226433
88.0228999962
153.0108824969
87.9250428375
142.2263357678
207.1337128792
142.1789569399
87.8727733747
153.0988724162
87.832710204
-337.8772589305
-254.4949164409
-337.9385553997
-260.193048175
-176.5879036988
-260.1417953989
-337.8426594373
-254.4699008628
-337.8446363572

SCALARS vonMises	float	1
LOOKUP_TABLE	default
109.4808840311
94.6564546462
110.2326265577
80.1296777635
54.9764767074
80.2263298911
111.4171308751
93.3608587213
111.2490173756
228.5435627319
190.0311400135
228.9497771917
183.7110550387
132.7674291985
183.7338234376
229.3076020327
189.0813455031
229.1942128275
241.1948165286
209.8365136139
241.295734265
221.3962426213
191.3518988785
221.3900358438
241.4741339731
209.6915974533
241.4128579262
