# vtk DataFile Version 2.0
Results
ASCII
DATASET UNSTRUCTURED_GRID
POINTS         27           float
0.0	0.0	0.0	
50.0	0.0	0.0	
100.0	0.0	0.0	
0.0	40.0	0.0	
50.0	40.0	0.0	
100.0	40.0	0.0	
0.0	80.0	0.0	
50.0	80.0	0.0	
100.0	80.0	0.0	
0.0	0.0	70.0	
50.0	0.0	70.0	
100.0	0.0	70.0	
0.0	40.0	70.0	
50.0	40.0	70.0	
100.0	40.0	70.0	
0.0	80.0	70.0	
50.0	80.0	70.0	
100.0	80.0	70.0	
0.0	0.0	140.0	
50.0	0.0	140.0	
100.0	0.0	140.0	
0.0	40.0	140.0	
50.0	40.0	140.0	
100.0	40.0	140.0	
0.0	80.0	140.0	
50.0	80.0	140.0	
100.0	80.0	140.0	

CELLS	8	72
 8	0	1	4	3	9	10	13	12	
 8	1	2	5	4	10	11	14	13	
 8	4	5	8	7	13	14	17	16	
 8	3	4	7	6	12	13	16	15	
 8	9	10	13	12	18	19	22	21	
 8	10	11	14	13	19	20	23	22	
 8	13	14	17	16	22	23	26	25	
 8	12	13	16	15	21	22	25	24	

CELL_TYPES	8
 12
 12
 12
 12
 12
 12
 12
 12

POINT_DATA	27
VECTORS	u 	float 
0.0	0.0	0.0
-0.0018368694	0.0	0.0
-0.0033540455	0.0	0.0
0.0	-0.0033114079	0.0
-0.0018422796	-0.0033353913	0.0
-0.0039138359	-0.0032030632	0.0
0.0	-0.0059831697	0.0
-0.0019428192	-0.0072080221	0.0
-0.0037844979	-0.0058677816	0.0
-0.0261889299	-0.0234979159	0.0054249276
-0.0018052007	-0.0226143888	0.0174452784
0.0225025387	-0.023342304	0.0054321061
-0.026166065	-0.003355553	0.0139137221
-0.0018728921	-0.0033211247	0.026010873
0.0224767757	-0.0032250411	0.0139016683
-0.0262381866	0.0166376975	0.0054699568
-0.0019144966	0.0161155029	0.017479095
0.0223822305	0.0167692298	0.0054562322
-0.0613457395	-0.052245529	0.0639831228
-0.0018136669	-0.0524304233	0.0766572724
0.0577542316	-0.0521230517	0.0639668392
-0.0615389969	-0.0034119479	0.0721978357
-0.0018571449	-0.003325805	0.085099073
0.057798481	-0.0032769867	0.0721970149
-0.0614785283	0.045491692	0.0640001496
-0.0019142263	0.0457119544	0.0767085198
0.0576618832	0.0456235392	0.0639929199

VECTORS	v 	float 
0.0	0.0	0.0
7.56239e-05	0.0	0.0
0.0001540539	0.0	0.0
0.0	5.37615e-05	0.0
8.38122e-05	6.37916e-05	0.0
0.0001651178	5.41237e-05	0.0
0.0	0.000111709	0.0
7.40849e-05	0.0001243048	0.0
0.0001494746	0.0001126402	0.0
7.42809e-05	4.52062e-05	7.06325e-05
8.08438e-05	5.15093e-05	5.56091e-05
8.65436e-05	4.68195e-05	7.10129e-05
7.87618e-05	5.90657e-05	5.80844e-05
7.82883e-05	5.75566e-05	4.08949e-05
7.87903e-05	6.04251e-05	5.74483e-05
7.37554e-05	7.17614e-05	7.12486e-05
7.9841e-05	6.47523e-05	5.69422e-05
8.55607e-05	7.28175e-05	7.15358e-05
0.0001668778	0.0001397576	3.71572e-05
7.95724e-05	0.0001488706	1.86893e-05
-7.3688e-06	0.0001409636	3.78404e-05
0.0001830716	5.67927e-05	2.08671e-05
7.99247e-05	5.82321e-05	-1.094e-06
-2.37354e-05	5.82073e-05	1.99826e-05
0.000165175	-2.5973e-05	3.87162e-05
7.84419e-05	-3.27755e-05	1.89616e-05
-8.2159e-06	-2.43248e-05	3.93042e-05

VECTORS	a 	float 
0.0	0.0	0.0
-0.8942042596	0.0	0.0
-1.7843468079	0.0	0.0
0.0	-0.7224542145	0.0
-0.884292938	-0.7124001382	0.0
-1.7720127195	-0.7222770995	0.0
0.0	-1.4388839247	0.0
-0.896933513	-1.4293585967	0.0
-1.7914788732	-1.4385152134	0.0
0.0069761187	-0.0089991801	3.0691192791
-0.8880433253	0.0030268242	3.0866563185
-1.7843136067	-0.0068910429	3.0696559756
0.0148167848	-0.7174465324	3.0773020381
-0.8913034284	-0.7188901536	3.0921612529
-1.7961563684	-0.7155893311	3.0768211094
0.0061522444	-1.4275166391	3.0699667614
-0.8892762529	-1.4393471824	3.0884379974
-1.7854210216	-1.4259153157	3.0703331387
0.0036289411	0.0022103784	6.1574742034
-0.889783832	0.0167303532	6.1922765689
-1.7827860021	0.0036877984	6.1585526361
0.02561897	-0.7200377887	6.1768445091
-0.8893588348	-0.7183535902	6.2071410549
-1.8048582167	-0.7183233491	6.1757891686
0.0016746507	-1.441907258	6.1592623635
-0.8911452484	-1.4539093328	6.1928977119
-1.7838641764	-1.4399598748	6.1602386386

SCALARS	theta	float 1
LOOKUP_TABLE	default
299.2446452664
299.2928413281
299.2475740545
299.2674286765
299.3109458514
299.2673580739
299.2482346103
299.2883910896
299.248088707
305.100089191
305.1252385954
305.0997932261
305.1114401457
305.1374770583
305.1115605768
305.0991238578
305.1255422713
305.0991301818
311.7352550367
311.746437764
311.7351680266
311.7380546783
311.7492962108
311.7379878992
311.7354857366
311.746465364
311.7354978446

SCALARS	sig_11	float	1
LOOKUP_TABLE	default
14.4135115259
23.7905698708
15.2365580482
21.5052039466
29.7667530863
21.1124362422
14.7565589562
22.671299145
14.8227710157
-7.0693732598
-3.1668774032
-7.1285238549
-3.9798716438
0.0500429479
-3.9570988693
-7.3001434625
-3.2851986846
-7.3122319843
-15.1835831832
-14.9378904315
-15.1663843014
-15.239972097
-14.9678541153
-15.2455991975
-15.1418589311
-14.92414169
-15.1358995355

SCALARS	sig_22	float	1
LOOKUP_TABLE	default
9.2619366909
17.9953026616
9.9062900752
16.9372300191
24.055283036
16.9320224155
10.8031025632
16.5870678421
10.8478233277
-6.0370113702
-3.3663178707
-6.0855186885
-2.8458978665
-0.0106613556
-2.8443880978
-6.1735339789
-3.2851911678
-6.1755203359
-10.9686545785
-10.77463299
-10.9567071837
-11.1335384599
-10.9313343718
-11.1283121526
-10.9172738265
-10.8061873924
-10.918306642

SCALARS	sig_33	float	1
LOOKUP_TABLE	default
23.5619319426
46.5873946589
23.9821695487
40.5494946737
62.8275434211
40.4043627874
24.2060059458
45.9387455675
24.2102610166
-9.5303709401
1.6879071417
-9.5785769365
-1.5736869312
9.8182317033
-1.5716429476
-9.6075965554
1.7309107621
-9.6184081419
-43.7104954123
-42.7222272572
-43.7334243213
-44.2013632973
-43.0758306676
-44.1865493173
-43.7194419998
-42.7066691111
-43.7010034734

SCALARS vonMises	float	1
LOOKUP_TABLE	default
61.5949527224
46.2391787603
61.1677381805
49.8851817167
32.7468116288
50.1013997571
61.0595478255
47.2380836654
61.1136737078
41.8682652965
38.2157533293
41.7868615493
39.8694934601
37.1364833385
39.9080419622
41.7645281274
38.3669741007
41.772332058
44.5986155622
44.6385087553
44.6847502185
44.8151665486
44.8031559384
44.7826463024
44.7427366457
44.5795937635
44.7360837889
