# vtk DataFile Version 2.0
Results
ASCII
DATASET UNSTRUCTURED_GRID
POINTS         27           float
0.0	0.0	0.0	
50.0	0.0	0.0	
100.0	0.0	0.0	
0.0	40.0	0.0	
50.0	40.0	0.0	
100.0	40.0	0.0	
0.0	80.0	0.0	
50.0	80.0	0.0	
100.0	80.0	0.0	
0.0	0.0	70.0	
50.0	0.0	70.0	
100.0	0.0	70.0	
0.0	40.0	70.0	
50.0	40.0	70.0	
100.0	40.0	70.0	
0.0	80.0	70.0	
50.0	80.0	70.0	
100.0	80.0	70.0	
0.0	0.0	140.0	
50.0	0.0	140.0	
100.0	0.0	140.0	
0.0	40.0	140.0	
50.0	40.0	140.0	
100.0	40.0	140.0	
0.0	80.0	140.0	
50.0	80.0	140.0	
100.0	80.0	140.0	

CELLS	8	72
 8	0	1	4	3	9	10	13	12	
 8	1	2	5	4	10	11	14	13	
 8	4	5	8	7	13	14	17	16	
 8	3	4	7	6	12	13	16	15	
 8	9	10	13	12	18	19	22	21	
 8	10	11	14	13	19	20	23	22	
 8	13	14	17	16	22	23	26	25	
 8	12	13	16	15	21	22	25	24	

CELL_TYPES	8
 12
 12
 12
 12
 12
 12
 12
 12

POINT_DATA	27
VECTORS	u 	float 
0.0	0.0	0.0
-0.0148147511	0.0	0.0
-0.0291985038	0.0	0.0
0.0	-0.0119706802	0.0
-0.0148476786	-0.0120025813	0.0
-0.0299961547	-0.0117652999	0.0
0.0	-0.0228272158	0.0
-0.0150162373	-0.024934381	0.0
-0.0299559662	-0.0225741103	0.0
-0.0237376143	-0.0174764515	-0.020715803
-0.0147695087	-0.0155043502	0.0006948518
-0.005908977	-0.0171863978	-0.0207134719
-0.0236573366	-0.0120513749	-0.006356994
-0.0148889355	-0.0119818475	0.0150654008
-0.0060484173	-0.0118066794	-0.0063883911
-0.0238444012	-0.0068839957	-0.02062821
-0.0149741831	-0.0082067324	0.0007662919
-0.0061277636	-0.0066396809	-0.0206577478
-0.1177482067	-0.0998377319	0.0421615115
-0.014774304	-0.0994287563	0.079018077
0.0882525107	-0.0996066929	0.0421247619
-0.1177084199	-0.0121600513	0.0689825957
-0.0148598952	-0.0120006532	0.1061260382
0.0879547572	-0.0119074646	0.068971693
-0.1179931555	0.0756392798	0.0422070519
-0.0149634584	0.0753094831	0.0791199067
0.0880770934	0.0758856494	0.0421846497

VECTORS	v 	float 
0.0	0.0	0.0
-3.82648e-05	0.0	0.0
-7.5559e-05	0.0	0.0
0.0	-6.87508e-05	0.0
-3.29711e-05	-6.00442e-05	0.0
-6.68436e-05	-6.88378e-05	0.0
0.0	-0.0001378229	0.0
-3.81745e-05	-0.0001198188	0.0
-7.56661e-05	-0.0001379478	0.0
-0.0002381467	-0.0002612377	0.0001262376
-3.50313e-05	-0.0002695521	8.5454e-05
0.0001678744	-0.0002612238	0.0001267021
-0.0002353921	-6.35693e-05	0.0001080603
-3.62233e-05	-6.52534e-05	6.52102e-05
0.0001633214	-6.36138e-05	0.0001076322
-0.0002380118	0.0001340873	0.0001263467
-3.49931e-05	0.0001390302	8.55242e-05
0.0001678714	0.000133928	0.000126728
0.0003305183	0.0002785916	0.0002205093
-3.58938e-05	0.0002760819	5.6235e-06
-0.0004022033	0.000278438	0.0002209253
0.0003422894	-6.46678e-05	3.87445e-05
-3.52939e-05	-6.416e-05	-0.0001793989
-0.0004131104	-6.47872e-05	3.83898e-05
0.0003305363	-0.0004080522	0.0002209615
-3.57627e-05	-0.00040431	5.3088e-06
-0.0004019844	-0.0004080962	0.0002213179

VECTORS	a 	float 
0.0	0.0	0.0
-0.8968186293	0.0	0.0
-1.7929477001	0.0	0.0
0.0	-0.7176299649	0.0
-0.8936094654	-0.7142497523	0.0
-1.787795888	-0.7176235237	0.0
0.0	-1.4339135603	0.0
-0.8976217775	-1.4294554846	0.0
-1.7948178115	-1.4338983544	0.0
-0.0030534856	-0.0027102769	3.0795899522
-0.8948622389	0.000322444	3.0827835993
-1.7869145743	-0.0021855643	3.0797730137
-0.0012685292	-0.7158865418	3.0803222576
-0.8958424524	-0.7163868507	3.082452962
-1.7901667163	-0.7154071215	3.0801744883
-0.0033079185	-1.4294279842	3.0798028017
-0.8951560188	-1.4327967077	3.0832384085
-1.7871626217	-1.4289950587	3.0799462693
0.0039590566	0.002627156	6.1563610781
-0.895411719	0.0081712035	6.1690853026
-1.7947374346	0.0030036262	6.1567190171
0.010734714	-0.71662181	6.164225726
-0.8952497452	-0.7161618631	6.1751979597
-1.8013040554	-0.7161996014	6.1638919335
0.0035061818	-1.4358042257	6.1568246318
-0.8957539013	-1.440567389	6.1692241246
-1.7950190849	-1.4353348368	6.157152049

SCALARS	theta	float 1
LOOKUP_TABLE	default
297.4240709829
297.4195036137
297.4226630442
297.4078396332
297.3989146149
297.4105558874
297.4293404221
297.4151435455
297.4278427166
301.3267180723
301.4648134413
301.3261712673
301.4238595383
301.5621224311
301.4230552096
301.3261699407
301.466302873
301.3263963383
320.5314932118
320.8491387045
320.5318234992
320.7545404194
321.0726939558
320.7548680781
320.5319376349
320.8488248928
320.5317190883

SCALARS	sig_11	float	1
LOOKUP_TABLE	default
-10.6779329869
6.8649101005
-9.3799206867
1.7679885362
17.475836011
1.2560938357
-10.1282638166
4.8441650415
-10.1461880082
16.543197256
26.6680434743
16.4605711293
25.0642564485
35.3812299961
25.0956597898
16.1362294393
26.4529917539
16.125710877
-60.7868463322
-55.2663647221
-60.7682609062
-55.292703857
-49.718187308
-55.2999800718
-60.7113301073
-55.2366334035
-60.707021277

SCALARS	sig_22	float	1
LOOKUP_TABLE	default
-13.2471142875
3.0660652122
-12.0688399217
0.2494028443
13.737894257
0.3699888247
-10.5737849823
0.5720127326
-10.4424234425
12.5321465857
19.6118915268
12.471659893
21.4428831249
28.7885150161
21.454508414
12.2892309452
19.7460743441
12.3006277424
-47.1161026555
-43.1388748022
-47.1075071531
-41.1799171945
-37.1810070322
-41.1754836975
-47.0266015459
-43.1908526847
-47.0357932324

SCALARS	sig_33	float	1
LOOKUP_TABLE	default
-9.1195110321
32.8362386639
-8.3836963043
20.1165710191
60.67451799
19.9216165269
-7.9989613478
31.6625038755
-8.0267096999
26.4643682903
57.7175065017
26.3949143714
50.7623254017
82.252676721
50.7616851182
26.3309329665
57.78547333
26.3107338459
-155.7083941637
-132.613742774
-155.7556834658
-135.6223717067
-112.2877648997
-135.5986873051
-155.7155086417
-132.5821882246
-155.6921005148

SCALARS vonMises	float	1
LOOKUP_TABLE	default
40.8742847112
33.2496094363
40.3549139333
39.2518799629
38.7533655767
39.5430771863
40.6283604435
35.1645068249
40.8010670404
95.239283363
90.6926320534
95.53360339
89.746646693
82.4732055182
89.7029398282
95.6986931285
90.3196441578
95.693766717
130.7104529602
122.3511447239
130.8444488271
125.6763976997
117.7423893987
125.6395434247
130.9544554488
122.2397551049
130.9324048851
