# vtk DataFile Version 2.0
Results
ASCII
DATASET UNSTRUCTURED_GRID
POINTS         27           float
0.0	0.0	0.0	
50.0	0.0	0.0	
100.0	0.0	0.0	
0.0	40.0	0.0	
50.0	40.0	0.0	
100.0	40.0	0.0	
0.0	80.0	0.0	
50.0	80.0	0.0	
100.0	80.0	0.0	
0.0	0.0	70.0	
50.0	0.0	70.0	
100.0	0.0	70.0	
0.0	40.0	70.0	
50.0	40.0	70.0	
100.0	40.0	70.0	
0.0	80.0	70.0	
50.0	80.0	70.0	
100.0	80.0	70.0	
0.0	0.0	140.0	
50.0	0.0	140.0	
100.0	0.0	140.0	
0.0	40.0	140.0	
50.0	40.0	140.0	
100.0	40.0	140.0	
0.0	80.0	140.0	
50.0	80.0	140.0	
100.0	80.0	140.0	

CELLS	8	72
 8	0	1	4	3	9	10	13	12	
 8	1	2	5	4	10	11	14	13	
 8	4	5	8	7	13	14	17	16	
 8	3	4	7	6	12	13	16	15	
 8	9	10	13	12	18	19	22	21	
 8	10	11	14	13	19	20	23	22	
 8	13	14	17	16	22	23	26	25	
 8	12	13	16	15	21	22	25	24	

CELL_TYPES	8
 12
 12
 12
 12
 12
 12
 12
 12

POINT_DATA	27
VECTORS	u 	float 
0.0	0.0	0.0
-0.0151253546	0.0	0.0
-0.0298058651	0.0	0.0
0.0	-0.0127646476	0.0
-0.0151519828	-0.012797872	0.0
-0.0306168591	-0.0125697615	0.0
0.0	-0.024450799	0.0
-0.0153168492	-0.0264960818	0.0
-0.0305368613	-0.0242167538	0.0
-0.0269600753	-0.0211236383	-0.0186851254
-0.0150792756	-0.0193324643	0.0020373182
-0.0033083434	-0.0208468806	-0.0186806909
-0.0268675856	-0.0128424533	-0.0046490741
-0.0151946156	-0.0127771462	0.016112448
-0.0034461067	-0.0126094669	-0.0046771649
-0.0270592962	-0.0048109879	-0.0186016261
-0.0152742594	-0.0059775693	0.0021048097
-0.0035175189	-0.0045780528	-0.0186287985
-0.1126151294	-0.0954965457	0.0454738086
-0.0150861859	-0.0953086077	0.0787448491
0.082496188	-0.0952768341	0.0454399731
-0.1126095696	-0.0129462673	0.0693459165
-0.0151668269	-0.0127939588	0.1029194664
0.0822404532	-0.0127056398	0.0693373556
-0.1128494314	0.0697219002	0.0455158745
-0.0152661861	0.0696067596	0.0788418171
0.0823297456	0.0699566379	0.0454961914

VECTORS	v 	float 
0.0	0.0	0.0
-1.01499e-05	0.0	0.0
-1.99979e-05	0.0	0.0
0.0	-3.70224e-05	0.0
-4.7144e-06	-2.75786e-05	0.0
-9.8132e-06	-3.69076e-05	0.0
0.0	-7.4175e-05	0.0
-1.00772e-05	-5.50566e-05	0.0
-2.01509e-05	-7.38661e-05	0.0
-0.0001727755	-0.0001923793	0.000126068
-6.776e-06	-0.0001970385	8.48282e-05
0.0001591686	-0.0001922193	0.0001264987
-0.0001708186	-3.1429e-05	0.0001051364
-8.0425e-06	-3.31787e-05	6.08146e-05
0.000154974	-3.13464e-05	0.0001045745
-0.0001727391	0.0001294655	0.000126213
-6.8627e-06	0.0001307287	8.49029e-05
0.0001590291	0.0001294171	0.0001265672
0.0003138902	0.000262731	0.0001845194
-7.6018e-06	0.000267497	7.6378e-06
-0.0003290327	0.0002627179	0.0001848572
0.0003265223	-3.26406e-05	3.65065e-05
-7.0438e-06	-3.20116e-05	-0.0001444768
-0.0003407994	-3.26174e-05	3.60892e-05
0.00031379	-0.0003281125	0.0001850083
-7.5764e-06	-0.0003314653	7.3403e-06
-0.0003289181	-0.0003280192	0.0001852835

VECTORS	a 	float 
0.0	0.0	0.0
-0.897229652	0.0	0.0
-1.7938052539	0.0	0.0
0.0	-0.7178496233	0.0
-0.8936158994	-0.713693158	0.0
-1.7877868033	-0.7177744592	0.0
0.0	-1.4341942711	0.0
-0.8980514034	-1.428477786	0.0
-1.7957801489	-1.4340476853	0.0
-0.0034187636	-0.0025114202	3.0795453077
-0.89500408	0.0009310882	3.0829076087
-1.7868257357	-0.0019146548	3.0797521604
-0.0015255795	-0.7156589969	3.0803268892
-0.8961007216	-0.7162825223	3.0822608044
-1.7904233497	-0.715123262	3.0801134417
-0.0037004787	-1.429213034	3.0797843553
-0.8953504278	-1.4331513141	3.0833801436
-1.7871326194	-1.4287371121	3.0799448578
0.0038716703	0.0024026067	6.1555590997
-0.8956069369	0.0092715184	6.1707483025
-1.7950347886	0.0028287077	6.1559206283
0.0118946824	-0.7165114611	6.1650747894
-0.8954224477	-0.7159686652	6.1781412613
-1.8028208772	-0.7160332728	6.1647010559
0.0033610795	-1.4353482231	6.1560699759
-0.8959877788	-1.4412983915	6.1708841186
-1.7953465373	-1.4348187518	6.1563985099

SCALARS	theta	float 1
LOOKUP_TABLE	default
297.1624971857
297.1740116346
297.1623589092
297.1557970723
297.1629656998
297.1579223758
297.1673412914
297.1696961529
297.1663980205
302.0664723132
302.1966489526
302.0658995047
302.1481353854
302.2786992448
302.1475285328
302.0659161014
302.1979043514
302.0660381667
319.3855760439
319.6649036531
319.3858126696
319.5651251783
319.8448262176
319.5653332885
319.3859753064
319.6647210341
319.3858155998

SCALARS	sig_11	float	1
LOOKUP_TABLE	default
-3.9967204025
12.7720784523
-2.706645413
8.0845873826
23.0431149712
7.5484576833
-3.4492277904
10.8220857653
-3.4380164245
11.1194182411
20.1410998006
11.0354863762
18.7755183779
27.9901166964
18.808210209
10.7254763255
19.9342452265
10.7130822909
-52.7697972217
-48.6820933426
-52.7494127477
-48.5253008718
-44.3861167543
-48.532859109
-52.6968118433
-48.6544503451
-52.6913066316

SCALARS	sig_22	float	1
LOOKUP_TABLE	default
-7.6453958055
7.9652488113
-6.5144819336
5.4559463366
18.3250201628
5.541723054
-5.0488637894
5.5518420605
-4.9347598908
8.1967566595
14.5108241637
8.1334320124
16.2244884316
22.8010092253
16.2340763497
7.9615780089
14.6417069056
7.969463142
-40.7087289992
-37.7190898815
-40.6979129701
-36.1012870529
-33.0910384695
-36.0959728674
-40.621957169
-37.7702920903
-40.62932615

SCALARS	sig_33	float	1
LOOKUP_TABLE	default
0.0744653979
40.4523258222
0.7894655952
28.5683830817
67.6036048448
28.3645562366
1.1661343175
39.3176425248
1.1446651022
18.2293361464
46.3437166283
18.1599726719
39.9729848729
68.3316828179
39.9739036421
18.0991820376
46.4103730775
18.0800743466
-137.1649711957
-118.7992070068
-137.2092286257
-121.392215654
-102.7925249096
-121.368963412
-137.1728623407
-118.7698250431
-137.1486121849

SCALARS vonMises	float	1
LOOKUP_TABLE	default
50.7447227131
39.6869797561
50.1735952854
46.0103922688
40.2712608178
46.3086192952
50.2645953743
41.4947092951
50.4076944723
84.741211454
81.4781766215
84.9316004015
81.3575365141
76.1878947215
81.3288256938
85.0334294196
81.208283458
85.0376804115
117.6062676543
111.0950142537
117.7395714584
113.6878712161
107.4568691259
113.6483725022
117.8439448917
110.9882403245
117.8249211778
