# vtk DataFile Version 2.0
Results
ASCII
DATASET UNSTRUCTURED_GRID
POINTS         27           float
0.0	0.0	0.0	
50.0	0.0	0.0	
100.0	0.0	0.0	
0.0	40.0	0.0	
50.0	40.0	0.0	
100.0	40.0	0.0	
0.0	80.0	0.0	
50.0	80.0	0.0	
100.0	80.0	0.0	
0.0	0.0	70.0	
50.0	0.0	70.0	
100.0	0.0	70.0	
0.0	40.0	70.0	
50.0	40.0	70.0	
100.0	40.0	70.0	
0.0	80.0	70.0	
50.0	80.0	70.0	
100.0	80.0	70.0	
0.0	0.0	140.0	
50.0	0.0	140.0	
100.0	0.0	140.0	
0.0	40.0	140.0	
50.0	40.0	140.0	
100.0	40.0	140.0	
0.0	80.0	140.0	
50.0	80.0	140.0	
100.0	80.0	140.0	

CELLS	8	72
 8	0	1	4	3	9	10	13	12	
 8	1	2	5	4	10	11	14	13	
 8	4	5	8	7	13	14	17	16	
 8	3	4	7	6	12	13	16	15	
 8	9	10	13	12	18	19	22	21	
 8	10	11	14	13	19	20	23	22	
 8	13	14	17	16	22	23	26	25	
 8	12	13	16	15	21	22	25	24	

CELL_TYPES	8
 12
 12
 12
 12
 12
 12
 12
 12

POINT_DATA	27
VECTORS	u 	float 
0.0	0.0	0.0
0.0027036649	0.0	0.0
0.0056754112	0.0	0.0
0.0	0.0005637057	0.0
0.0027009654	0.000546318	0.0
0.0052097296	0.0006543467	0.0
0.0	0.0016612813	0.0
0.0026155502	0.0006437901	0.0
0.0053160145	0.0017574323	0.0
-0.0223012759	-0.0200865165	0.0107416764
0.0027312178	-0.0193544008	0.0207679776
0.0277001358	-0.0199566982	0.0107479084
-0.0222877922	0.0005286965	0.0178364518
0.0026743599	0.0005568648	0.0279285058
0.0276839088	0.0006376032	0.0178263735
-0.0223420219	0.0210193345	0.0107789032
0.0026399882	0.0205876574	0.0207954301
0.027599357	0.0211291239	0.0107675247
-0.0510234114	-0.0434684288	0.0660377627
0.0027237999	-0.043629452	0.076323175
0.056501033	-0.0433662661	0.0660243326
-0.0511961219	0.0004818631	0.0726500549
0.0026876998	0.0005538877	0.0831263764
0.056549548	0.0005945008	0.07264951
-0.0511341068	0.0444905828	0.0660512671
0.0026399009	0.044681413	0.076365061
0.0564238949	0.0446006941	0.0660453884

VECTORS	v 	float 
0.0	0.0	0.0
5.28291e-05	0.0	0.0
0.0001018974	0.0	0.0
0.0	5.7907e-05	0.0
4.21092e-05	4.5585e-05	0.0
8.73209e-05	5.72345e-05	0.0
0.0	0.0001094278	0.0
5.48817e-05	9.62206e-05	0.0
0.0001080946	0.0001083499	0.0
3.36888e-05	4.95745e-05	8.07133e-05
4.61318e-05	4.21548e-05	4.6122e-05
5.96975e-05	4.76176e-05	8.02222e-05
3.03177e-05	5.14031e-05	5.8382e-05
4.94563e-05	5.33625e-05	2.57985e-05
6.74895e-05	4.97431e-05	5.90048e-05
3.42848e-05	5.4884e-05	7.9835e-05
4.73462e-05	6.29766e-05	4.48362e-05
6.09277e-05	5.34453e-05	7.95435e-05
0.0001236329	0.0001123068	1.48204e-05
4.80121e-05	0.0001033785	-2.63738e-05
-2.80435e-05	0.0001111254	1.40367e-05
0.0001067108	5.40584e-05	-9.9551e-06
4.73705e-05	5.23096e-05	-4.81468e-05
-1.14547e-05	5.26539e-05	-9.017e-06
0.0001252239	-4.6367e-06	1.31563e-05
4.90041e-05	1.793e-06	-2.67283e-05
-2.73224e-05	-6.2257e-06	1.24732e-05

VECTORS	a 	float 
0.0	0.0	0.0
0.8910891025	0.0	0.0
1.7771513738	0.0	0.0
0.0	0.7233681435	0.0
0.8789529719	0.7108212678	0.0
1.7621490416	0.7230628118	0.0
0.0	1.4391731601	0.0
0.8943712601	1.4273984506	0.0
1.7858851025	1.4385687023	0.0
-0.0129126539	0.0097227826	-3.0636175639
0.8835208875	-0.0046770512	-3.0863509673
1.7814933593	0.0071043583	-3.0642550154
-0.0221958458	0.7170938718	-3.074831399
0.887521419	0.7188992378	-3.0944102123
1.7956770569	0.7147972616	-3.0742076994
-0.0119228661	1.4264842633	-3.0646386312
0.8850671303	1.4406336263	-3.0885504297
1.7829141596	1.4245090285	-3.0650770764
-0.0077310462	-0.0032422468	-6.157614583
0.8856427894	-0.020215528	-6.1989734933
1.7784975027	-0.0050671403	-6.1588913221
-0.034213415	0.7202993237	-6.1805101294
0.8851245224	0.7182122646	-6.2165458446
1.8051205404	0.7181795238	-6.179213974
-0.0053066306	1.4433703003	-6.1598148554
0.8873174126	1.4572366197	-6.1997351963
1.7798144599	1.4409624565	-6.1609761082

SCALARS	theta	float 1
LOOKUP_TABLE	default
300.1957068507
300.2380769464
300.1983166515
300.2162345909
300.2545173948
300.2160991828
300.1987525977
300.2341450724
300.1986242161
305.2100658252
305.2280208442
305.2098227663
305.2181509673
305.236894376
305.2182847886
305.209185469
305.2282276261
305.2091822146
310.6032029653
310.6046156019
310.6031413131
310.6015682179
310.6030219978
310.6015131744
310.6033758515
310.6046215058
310.6034157658

SCALARS	sig_11	float	1
LOOKUP_TABLE	default
12.7364649656
20.5508773434
13.4256323232
18.6560505647
25.5382601424
18.3251897219
13.022928507
19.6178843975
13.0810596223
-6.4841759029
-3.2663884945
-6.5341233093
-3.9607754231
-0.6356447822
-3.9415923025
-6.6767810649
-3.3645803336
-6.6870706199
-12.0311221697
-11.8913253129
-12.0165904933
-12.1820129216
-12.0206391257
-12.1869523439
-11.9961643282
-11.8799679583
-11.9911382202

SCALARS	sig_22	float	1
LOOKUP_TABLE	default
8.311275013
15.5862932558
8.8486483042
14.7165082909
20.6433700512
14.7099017139
9.5983506649
14.4117185154
9.6359494875
-5.5018390442
-3.3057459503
-5.5428680811
-2.9021809432
-0.5679238927
-2.900955975
-5.6156439679
-3.2373205688
-5.6175100573
-8.622105029
-8.5097769887
-8.6118656232
-8.8836010218
-8.765023477
-8.8793370592
-8.5789565411
-8.5361083206
-8.5796571346

SCALARS	sig_33	float	1
LOOKUP_TABLE	default
20.643551362
39.857485325
20.9941641701
34.8432993334
53.43661866
34.7208989993
21.1808632506
39.3177055315
21.1861019062
-8.8207655432
0.3475799115
-8.8615410079
-2.3751235547
6.9401570604
-2.3732876994
-8.8852438319
0.3843037936
-8.8941801673
-34.9720474259
-34.5320819351
-34.9910641827
-35.7908218044
-35.2368597964
-35.7787079665
-34.9795582816
-34.519175794
-34.9639377063

SCALARS vonMises	float	1
LOOKUP_TABLE	default
52.7869868962
39.6217492713
52.4266303415
42.6417182658
27.7787566441
42.825901225
52.3337771038
40.4593924007
52.3778575028
34.8602040034
31.806277697
34.7884988201
33.1944510299
30.8329905316
33.2293353455
34.7686582035
31.9438886975
34.7748293702
36.2128672798
36.432010166
36.2852518496
36.5183315772
36.6919948203
36.4907787285
36.3330318483
36.3834121809
36.3278482788
