# vtk DataFile Version 2.0
Results
ASCII
DATASET UNSTRUCTURED_GRID
POINTS         27           float
0.0	0.0	0.0	
50.0	0.0	0.0	
100.0	0.0	0.0	
0.0	40.0	0.0	
50.0	40.0	0.0	
100.0	40.0	0.0	
0.0	80.0	0.0	
50.0	80.0	0.0	
100.0	80.0	0.0	
0.0	0.0	70.0	
50.0	0.0	70.0	
100.0	0.0	70.0	
0.0	40.0	70.0	
50.0	40.0	70.0	
100.0	40.0	70.0	
0.0	80.0	70.0	
50.0	80.0	70.0	
100.0	80.0	70.0	
0.0	0.0	140.0	
50.0	0.0	140.0	
100.0	0.0	140.0	
0.0	40.0	140.0	
50.0	40.0	140.0	
100.0	40.0	140.0	
0.0	80.0	140.0	
50.0	80.0	140.0	
100.0	80.0	140.0	

CELLS	8	72
 8	0	1	4	3	9	10	13	12	
 8	1	2	5	4	10	11	14	13	
 8	4	5	8	7	13	14	17	16	
 8	3	4	7	6	12	13	16	15	
 8	9	10	13	12	18	19	22	21	
 8	10	11	14	13	19	20	23	22	
 8	13	14	17	16	22	23	26	25	
 8	12	13	16	15	21	22	25	24	

CELL_TYPES	8
 12
 12
 12
 12
 12
 12
 12
 12

POINT_DATA	27
VECTORS	u 	float 
0.0	0.0	0.0
0.0006063447	0.0	0.0
0.0015043308	0.0	0.0
0.0	-0.0012331014	0.0
0.0006024443	-0.0012525048	0.0
0.000995779	-0.0011342626	0.0
0.0	-0.0018840166	0.0
0.0005102538	-0.0029943052	0.0
0.0011126832	-0.0017789388	0.0
-0.02413281	-0.0217040128	0.0083168937
0.0006358477	-0.0209039386	0.0192521164
0.0253352775	-0.0215624202	0.0083236355
-0.0241159232	-0.0012716248	0.0160495989
0.0005740436	-0.0012407891	0.0270555051
0.0253155634	-0.0011528712	0.0160385084
-0.0241773987	0.0190249664	0.0083577044
0.0005363484	0.018552788	0.0192823012
0.025225516	0.0191446597	0.0083452976
-0.0557201966	-0.0474636806	0.0651345574
0.000627958	-0.0476364101	0.0764731836
0.0570087962	-0.0473522343	0.0651198437
-0.0559035734	-0.001322887	0.0724484908
0.0005885015	-0.0012443393	0.0839944643
0.0570566432	-0.0012000434	0.0724477767
-0.0558409846	0.0448816495	0.0651496606
0.0005364549	0.0450868627	0.0765191826
0.0569247184	0.0450017008	0.0651431703

VECTORS	v 	float 
0.0	0.0	0.0
8.23711e-05	0.0	0.0
0.0001677588	0.0	0.0
0.0	5.50215e-05	0.0
8.94559e-05	6.20965e-05	0.0
0.0001762829	5.52827e-05	0.0
0.0	0.0001146214	0.0
8.04629e-05	0.0001207364	0.0
0.0001625208	0.0001152361	0.0
8.23928e-05	4.74028e-05	4.53822e-05
8.68486e-05	5.56972e-05	4.50018e-05
9.04033e-05	4.90704e-05	4.55727e-05
8.81791e-05	5.84789e-05	4.2044e-05
8.44969e-05	5.75765e-05	4.03493e-05
8.17699e-05	5.99519e-05	4.16752e-05
8.18219e-05	6.84071e-05	4.57109e-05
8.58358e-05	6.05657e-05	4.67097e-05
8.93772e-05	6.9654e-05	4.59109e-05
0.0001741714	0.0001326432	2.20311e-05
8.57298e-05	0.0001414629	2.15713e-05
-2.3961e-06	0.0001339324	2.26387e-05
0.0001900155	5.6581e-05	1.74644e-05
8.59066e-05	5.77755e-05	1.41339e-05
-1.86312e-05	5.80479e-05	1.67007e-05
0.0001724467	-1.92955e-05	2.33059e-05
8.45041e-05	-2.62206e-05	2.22145e-05
-3.3669e-06	-1.76317e-05	2.39215e-05

VECTORS	a 	float 
0.0	0.0	0.0
-0.8928088531	0.0	0.0
-1.7810266392	0.0	0.0
0.0	-0.722973787	0.0
-0.8817479252	-0.711669579	0.0
-1.7673701209	-0.7227354647	0.0
0.0	-1.4391076956	0.0
-0.895835382	-1.4285320458	0.0
-1.7890150088	-1.4386249022	0.0
0.00984238	-0.0094844875	3.0664155669
-0.8859215914	0.0038539942	3.086705114
-1.7830934412	-0.0071068765	3.0670045124
0.0184712311	-0.7173377913	3.0761723969
-0.8895680206	-0.7189618192	3.0935456048
-1.7961798094	-0.715248663	3.0756208315
0.0089304781	-1.4270256007	3.0673560367
-0.8873187091	-1.4401149777	3.0887108361
-1.7843625547	-1.4252277172	3.0677589605
0.0052508936	0.0025999804	6.1574489633
-0.8878614393	0.0184083462	6.1958187595
-1.7805038571	0.0042592251	6.1586325288
0.0295731003	-0.7202481309	6.1786964358
-0.8873884999	-0.7183545173	6.2121485687
-1.804945899	-0.718320612	6.1775167601
0.0030479108	-1.4426675239	6.1594547195
-0.8893875734	-1.4556566189	6.1965175574
-1.7817071652	-1.4404771393	6.1605291052

SCALARS	theta	float 1
LOOKUP_TABLE	default
299.7539717258
299.7993198052
299.7567640517
299.775773803
299.8167218008
299.7756330096
299.7572806127
299.795116103
299.757164676
305.1685573558
305.1894293271
305.1682831659
305.1779478332
305.1996773427
305.1780875559
305.1676283343
305.1896836709
305.1676213085
311.1115854446
311.1164855239
311.1115176146
311.1114874249
311.1164278517
311.1114198352
311.1117863748
311.1164978972
311.1118213114

SCALARS	sig_11	float	1
LOOKUP_TABLE	default
13.5869743893
22.1187855095
14.3385688538
20.0459826219
27.5603933466
19.6854614747
13.8992487501
21.0997335402
13.9622217614
-6.8248612021
-3.2971414327
-6.8791791102
-4.0487698019
-0.4041039157
-4.0278167288
-7.0350366486
-3.4044374987
-7.0462593908
-13.3948007104
-13.2129681186
-13.378949134
-13.5141597116
-13.3086046484
-13.5194985752
-13.3566856874
-13.200554979
-13.3511499582

SCALARS	sig_22	float	1
LOOKUP_TABLE	default
8.8147790452
16.7575278875
9.4013379114
15.8043151764
22.2755579287
15.7971957563
10.2187985277
15.4753087968
10.2599053626
-5.804379476
-3.3950902165
-5.8489749109
-2.9409990193
-0.3810931241
-2.9395832831
-5.9286597185
-3.3207027069
-5.9306847452
-9.6302220966
-9.4858297151
-9.6190713169
-9.8614843694
-9.7100487222
-9.8568467711
-9.5832493792
-9.514597693
-9.5839846651

SCALARS	sig_33	float	1
LOOKUP_TABLE	default
22.0936148908
43.0559937867
22.4765280043
37.5746114379
57.858050332
37.441085076
22.6799659894
42.4660994437
22.6853647977
-9.2541971876
0.8304823154
-9.2984922239
-2.1403260166
8.1040908419
-2.1382655531
-9.324580757
0.8703117485
-9.3344085665
-38.7818579227
-38.1364433719
-38.8025286984
-39.4998751683
-38.7299185358
-39.4866715753
-38.7900059405
-38.1224003966
-38.7729394272

SCALARS vonMises	float	1
LOOKUP_TABLE	default
56.9819318073
42.7724987439
56.5901873423
46.0747687262
30.1058386839
46.2738501115
56.4894199558
43.6856525271
56.538358597
38.0463173853
34.7244284196
37.9694105254
36.2302280234
33.6995940498
36.2672706601
37.9480227049
34.870163687
37.9548567204
39.91308346
40.0848610075
39.9916407216
40.1970880995
40.320746073
40.1674235298
40.0440353711
40.0318290631
40.0380011508
