# vtk DataFile Version 2.0
Results
ASCII
DATASET UNSTRUCTURED_GRID
POINTS         27           float
0.0	0.0	0.0	
50.0	0.0	0.0	
100.0	0.0	0.0	
0.0	40.0	0.0	
50.0	40.0	0.0	
100.0	40.0	0.0	
0.0	80.0	0.0	
50.0	80.0	0.0	
100.0	80.0	0.0	
0.0	0.0	70.0	
50.0	0.0	70.0	
100.0	0.0	70.0	
0.0	40.0	70.0	
50.0	40.0	70.0	
100.0	40.0	70.0	
0.0	80.0	70.0	
50.0	80.0	70.0	
100.0	80.0	70.0	
0.0	0.0	140.0	
50.0	0.0	140.0	
100.0	0.0	140.0	
0.0	40.0	140.0	
50.0	40.0	140.0	
100.0	40.0	140.0	
0.0	80.0	140.0	
50.0	80.0	140.0	
100.0	80.0	140.0	

CELLS	8	72
 8	0	1	4	3	9	10	13	12	
 8	1	2	5	4	10	11	14	13	
 8	4	5	8	7	13	14	17	16	
 8	3	4	7	6	12	13	16	15	
 8	9	10	13	12	18	19	22	21	
 8	10	11	14	13	19	20	23	22	
 8	13	14	17	16	22	23	26	25	
 8	12	13	16	15	21	22	25	24	

CELL_TYPES	8
 12
 12
 12
 12
 12
 12
 12
 12

POINT_DATA	27
VECTORS	u 	float 
0.0	0.0	0.0
-0.0036898255	0.0	0.0
-0.007039167	0.0	0.0
0.0	-0.0048744956	0.0
-0.0036956332	-0.0048996296	0.0
-0.0076354462	-0.0047585849	0.0
0.0	-0.0090650998	0.0
-0.0038032032	-0.0103734425	0.0
-0.0074991376	-0.0089411946	0.0
-0.0276689506	-0.0247653432	0.0031734172
-0.0036559393	-0.0238182489	0.0160320247
0.0202760406	-0.0245988439	0.0031809806
-0.0276418925	-0.0049215557	0.0122435148
-0.0037283436	-0.0048847489	0.0251826784
0.0202453487	-0.004781942	0.012230484
-0.0277218814	0.0147628624	0.0032218665
-0.0037728801	0.0142021524	0.0160685195
0.0201475176	0.0149035277	0.0032071679
-0.0657665755	-0.0559989903	0.0630224425
-0.0036649072	-0.0561918419	0.0768030168
0.0584749717	-0.0558679324	0.0630049201
-0.0659643295	-0.0049822394	0.0719970931
-0.0037114354	-0.0048900285	0.0860191451
0.0585134995	-0.004837858	0.0719960608
-0.0659086801	0.04610944	0.0630411882
-0.0037724849	0.04634028	0.0768582007
0.0583762231	0.0462504515	0.0630333159

VECTORS	v 	float 
0.0	0.0	0.0
6.86514e-05	0.0	0.0
0.0001412748	0.0	0.0
0.0	5.43556e-05	0.0
7.60865e-05	6.11924e-05	0.0
0.0001487094	5.4312e-05	0.0
0.0	0.0001132147	0.0
6.66197e-05	0.0001189267	0.0
0.0001357362	0.0001134592	0.0
6.34972e-05	3.89802e-05	8.26185e-05
7.3308e-05	4.88774e-05	6.83992e-05
8.19471e-05	4.06548e-05	8.29739e-05
7.01011e-05	5.7639e-05	6.89058e-05
7.08305e-05	5.66621e-05	5.31447e-05
7.28223e-05	5.90693e-05	6.85436e-05
6.29096e-05	7.49809e-05	8.33045e-05
7.23486e-05	6.56558e-05	7.00294e-05
8.11448e-05	7.60831e-05	8.35457e-05
0.0001564289	0.0001434483	3.64364e-05
7.20361e-05	0.0001531475	2.07016e-05
-1.18938e-05	0.0001446257	3.72372e-05
0.0001721732	5.55642e-05	1.85163e-05
7.2345e-05	5.68618e-05	-2.18e-08
-2.80979e-05	5.69838e-05	1.77243e-05
0.0001546594	-3.20427e-05	3.80326e-05
7.0885e-05	-3.98594e-05	2.12214e-05
-1.27504e-05	-3.03459e-05	3.87404e-05

VECTORS	a 	float 
0.0	0.0	0.0
-0.893791541	0.0	0.0
-1.7840644403	0.0	0.0
0.0	-0.7218499017	0.0
-0.884651464	-0.7123870103	0.0
-1.7722728275	-0.7216755172	0.0
0.0	-1.4383294014	0.0
-0.8962493829	-1.4288256332	0.0
-1.7904522062	-1.4379768955	0.0
0.0062542922	-0.0080616077	3.0698883046
-0.8881105008	0.0025648669	3.0853079116
-1.7835698985	-0.0061643386	3.0703868567
0.0132882595	-0.7170951531	3.0770587489
-0.8910901721	-0.7184586143	3.0899138467
-1.7943586931	-0.7154191031	3.0766030838
0.0055026761	-1.4275703836	3.0706509721
-0.8892236604	-1.4381866824	3.0868929997
-1.7845766159	-1.4261178079	3.0709959922
0.0058309583	0.0028728544	6.1579969523
-0.8897018779	0.0163874008	6.1894364559
-1.784883359	0.0042187422	6.1589845187
0.0261831489	-0.7194644598	6.1758657498
-0.8893092818	-0.7179256382	6.2030160928
-1.8052515001	-0.7179105123	6.1748929181
0.0040736423	-1.4414716274	6.1596102634
-0.8909387363	-1.4526483782	6.1899771627
-1.7858695585	-1.4397137567	6.160502418

SCALARS	theta	float 1
LOOKUP_TABLE	default
298.8634426188
298.9135792151
298.8664787676
298.8868484737
298.9320837697
298.8867953668
298.8672356172
298.9089524622
298.8671152325
305.0279721174
305.0573336678
305.0276458563
305.0412626044
305.0715589193
305.0413798248
305.0269843131
305.0576922866
305.0269869102
312.2396523479
312.2579202968
312.2395627206
312.2458756983
312.2642020224
312.2457981839
312.2399091925
312.257953108
312.2399128197

SCALARS	sig_11	float	1
LOOKUP_TABLE	default
14.8643242041
24.9081374159
15.7433799976
22.4514685759
31.3025900587
22.0328643832
15.2305852969
23.7094779618
15.3000781281
-7.1061166916
-2.8988231105
-7.1690542299
-3.7581317562
0.5850471736
-3.7338001577
-7.3529627966
-3.0255907798
-7.365829297
-16.747155037
-16.4330275025
-16.7288530844
-16.7258454967
-16.3832151884
-16.7317861009
-16.7025715805
-16.4182374178
-16.69618838

SCALARS	sig_22	float	1
LOOKUP_TABLE	default
9.4524116182
18.8055140406
10.1419011194
17.6662665802
25.2912719358
17.6615246392
11.1003058328
17.2984607837
11.1482671211
-6.0955307
-3.2130439092
-6.147065491
-2.6314860179
0.4266784864
-2.6297426366
-6.2416762848
-3.126617159
-6.2436922043
-12.1519440888
-11.9050609054
-12.1392825054
-12.2319196817
-11.976012256
-12.2263640157
-12.0971152481
-11.9388036621
-12.0982453326

SCALARS	sig_33	float	1
LOOKUP_TABLE	default
24.4291979202
49.0753833436
24.8789215931
42.5928561625
66.4374846934
42.4380432789
25.1181071478
48.3803923396
25.1219186826
-9.5229177285
2.6378579253
-9.5741374883
-0.8543968596
11.4911334239
-0.8521715128
-9.6055372885
2.6835650082
-9.6171632107
-47.947919048
-46.585817365
-47.9724267297
-48.1513305089
-46.6422179084
-48.1355106391
-47.9574165805
-46.5691448778
-47.9377377821

SCALARS vonMises	float	1
LOOKUP_TABLE	default
64.8075810093
48.6575348838
64.3518500972
52.5729362523
34.6879867315
52.8036615501
64.2380371516
49.7274547323
64.2963915684
44.8475301946
40.9745155695
44.7627456738
42.7239862886
39.8856749716
42.7638172782
44.7393644742
41.1282874198
44.7475577169
48.4768601981
48.4086401925
48.5687483732
48.6322199393
48.5101334735
48.5976962456
48.6308131898
48.3455386515
48.6235387046
