# vtk DataFile Version 2.0
Results
ASCII
DATASET UNSTRUCTURED_GRID
POINTS         27           float
0.0	0.0	0.0	
50.0	0.0	0.0	
100.0	0.0	0.0	
0.0	40.0	0.0	
50.0	40.0	0.0	
100.0	40.0	0.0	
0.0	80.0	0.0	
50.0	80.0	0.0	
100.0	80.0	0.0	
0.0	0.0	70.0	
50.0	0.0	70.0	
100.0	0.0	70.0	
0.0	40.0	70.0	
50.0	40.0	70.0	
100.0	40.0	70.0	
0.0	80.0	70.0	
50.0	80.0	70.0	
100.0	80.0	70.0	
0.0	0.0	140.0	
50.0	0.0	140.0	
100.0	0.0	140.0	
0.0	40.0	140.0	
50.0	40.0	140.0	
100.0	40.0	140.0	
0.0	80.0	140.0	
50.0	80.0	140.0	
100.0	80.0	140.0	

CELLS	8	72
 8	0	1	4	3	9	10	13	12	
 8	1	2	5	4	10	11	14	13	
 8	4	5	8	7	13	14	17	16	
 8	3	4	7	6	12	13	16	15	
 8	9	10	13	12	18	19	22	21	
 8	10	11	14	13	19	20	23	22	
 8	13	14	17	16	22	23	26	25	
 8	12	13	16	15	21	22	25	24	

CELL_TYPES	8
 12
 12
 12
 12
 12
 12
 12
 12

POINT_DATA	27
VECTORS	u 	float 
0.0	0.0	0.0
0.0018942763	0.0	0.0
0.0040657517	0.0	0.0
0.0	-0.0001307401	0.0
0.0018913501	-0.0001487739	0.0
0.0035839533	-3.69583e-05	0.0
0.0	0.0002909783	0.0
0.0018030839	-0.0007619569	0.0
0.0036939227	0.0003905292	0.0
-0.0230139524	-0.0207176626	0.0098111402
0.0019227181	-0.0199595685	0.0201863527
0.0267936267	-0.0205833193	0.0098175717
-0.0229993674	-0.0001670241	0.0171509586
0.001863908	-0.0001378554	0.0275938798
0.0267761907	-5.43312e-05	0.0171405002
-0.0230561704	0.0202547203	0.0098497405
0.0018283123	0.0198075744	0.0202148531
0.0266893947	0.0203683196	0.0098379679
-0.0528238939	-0.0450002925	0.0656968078
0.0019150801	-0.0451659439	0.0763805807
0.0566851024	-0.0448945627	0.0656828935
-0.0530009509	-0.0002155716	0.0725732856
0.0018777094	-0.0001410326	0.0834543395
0.05673364	-9.90117e-05	0.0725726777
-0.0529384676	0.0446296214	0.0657109178
0.001828258	0.0448261213	0.0764240427
0.0566052958	0.0447435538	0.0657048139

VECTORS	v 	float 
0.0	0.0	0.0
8.05336e-05	0.0	0.0
0.0001639237	0.0	0.0
0.0	5.33226e-05	0.0
8.62179e-05	5.97807e-05	0.0
0.0001699356	5.36534e-05	0.0
0.0	0.0001111928	0.0
7.87121e-05	0.0001161037	0.0
0.000158835	0.000111939	0.0
8.10775e-05	4.6594e-05	4.05106e-05
8.42046e-05	5.52727e-05	4.23346e-05
8.64695e-05	4.82725e-05	4.07323e-05
8.76004e-05	5.64522e-05	3.96597e-05
8.2148e-05	5.5667e-05	3.99431e-05
7.76217e-05	5.79252e-05	3.92156e-05
8.05021e-05	6.517e-05	4.08428e-05
8.31708e-05	5.71758e-05	4.39937e-05
8.54127e-05	6.64087e-05	4.107e-05
0.0001661764	0.0001261054	1.83902e-05
8.33082e-05	0.0001348868	2.14227e-05
7.513e-07	0.0001274163	1.89955e-05
0.0001820286	5.46443e-05	1.75847e-05
8.33674e-05	5.58134e-05	1.75382e-05
-1.57226e-05	5.61343e-05	1.6785e-05
0.0001644302	-1.66327e-05	1.9664e-05
8.20664e-05	-2.35727e-05	2.2029e-05
-2.338e-07	-1.49459e-05	2.02756e-05

VECTORS	a 	float 
0.0	0.0	0.0
-0.8917667324	0.0	0.0
-1.7786783079	0.0	0.0
0.0	-0.7232129179	0.0
-0.8800541175	-0.7111555046	0.0
-1.7642060286	-0.7229339841	0.0
0.0	-1.43914763	0.0
-0.8949481848	-1.4278451268	0.0
-1.7871183969	-1.438591105	0.0
0.011703131	-0.0096288927	3.064719695
-0.8844667419	0.0043527883	3.0864903602
-1.7821239144	-0.0071053379	3.0653380462
0.020728522	-0.7171900433	3.0753595412
-0.8883277865	-0.7189239839	3.0940694566
-1.7958753245	-0.7149751713	3.0747642529
0.0107440236	-1.4266976925	3.0657090144
-0.885954236	-1.440429472	3.0886134888
-1.7834849554	-1.4247923254	3.0661334733
0.0067535943	0.0029888983	6.1575493293
-0.886516932	0.019503249	6.19773072
-1.7792877241	0.0047485352	6.158789369
0.0323849448	-0.7202792405	6.1797956579
-0.8860165177	-0.7182683858	6.2148136161
-1.8050515218	-0.7182351895	6.1785453849
0.0044164151	-1.4430932852	6.1596729684
-0.8881330583	-1.456613998	6.1984676376
-1.7805599121	-1.4407711098	6.1608000061

SCALARS	theta	float 1
LOOKUP_TABLE	default
300.024864997
300.0684173842
300.0275456572
300.0459081123
300.0852522482
300.0457724276
300.0280126353
300.0643791433
300.0278860423
305.1955969047
305.2146100883
305.195342559
305.2041577533
305.2239847807
305.2042934354
305.194696969
305.2148339691
305.1946928865
310.796963086
310.7995461673
310.7968984342
310.7958323502
310.7984571233
310.7957731447
310.7971464355
310.7995548405
310.7971841273

SCALARS	sig_11	float	1
LOOKUP_TABLE	default
13.077935514
21.1677044803
13.7910567089
19.2044524943
26.3293533238
18.8622360576
13.3743417831
20.2017581149
13.434297914
-6.6272038439
-3.2910352936
-6.6788321966
-4.0078741759
-0.5606878168
-3.9880179746
-6.8265576738
-3.3927251275
-6.8372003994
-12.5417092853
-12.3869995794
-12.5266745497
-12.6826382067
-12.5055278314
-12.6877262851
-12.5055418452
-12.3752363863
-12.5003268388

SCALARS	sig_22	float	1
LOOKUP_TABLE	default
8.516787085
16.0478728608
9.0730295846
15.1464622478
21.2820776537
15.1397195461
9.8487742862
14.8320100289
9.8876928043
-5.6277376031
-3.3504100286
-5.6701428382
-2.9279252304
-0.5076642522
-2.9266348415
-5.7455609478
-3.2796918587
-5.7474877022
-8.9983758069
-8.8747517094
-8.9877932639
-9.2507092596
-9.1205297966
-9.2462931308
-8.9537588242
-8.9020170369
-8.9544822806

SCALARS	sig_33	float	1
LOOKUP_TABLE	default
21.2207302622
41.1063463814
21.5837036014
35.9133193404
55.1560093696
35.7866912874
21.7768600561
40.5473832246
21.7821342031
-9.0054168833
0.5110664261
-9.0475554521
-2.3068299994
7.3615047378
-2.3049139021
-9.0721664613
0.5489813702
-9.0814454451
-36.4042731481
-35.8932637096
-36.4239398204
-37.1926639231
-36.5635972409
-37.1801147109
-36.4120354357
-35.8799158917
-36.3958718346

SCALARS vonMises	float	1
LOOKUP_TABLE	default
54.4268635249
40.8531518701
54.0542234928
43.981185707
28.6820831503
44.1715012654
53.9583859637
41.7200391876
54.0041166565
36.0816065994
32.9248628269
36.0077882375
34.3589397918
31.9312698514
34.3947722018
35.9873679515
33.0658472243
35.9937211947
37.6123220994
37.8177089918
37.6871197334
37.9134025966
38.0720359139
37.884991738
37.736654261
37.7673912239
37.7311922479
