# vtk DataFile Version 2.0
Results
ASCII
DATASET UNSTRUCTURED_GRID
POINTS         27           float
0.0	0.0	0.0	
50.0	0.0	0.0	
100.0	0.0	0.0	
0.0	40.0	0.0	
50.0	40.0	0.0	
100.0	40.0	0.0	
0.0	80.0	0.0	
50.0	80.0	0.0	
100.0	80.0	0.0	
0.0	0.0	70.0	
50.0	0.0	70.0	
100.0	0.0	70.0	
0.0	40.0	70.0	
50.0	40.0	70.0	
100.0	40.0	70.0	
0.0	80.0	70.0	
50.0	80.0	70.0	
100.0	80.0	70.0	
0.0	0.0	140.0	
50.0	0.0	140.0	
100.0	0.0	140.0	
0.0	40.0	140.0	
50.0	40.0	140.0	
100.0	40.0	140.0	
0.0	80.0	140.0	
50.0	80.0	140.0	
100.0	80.0	140.0	

CELLS	8	72
 8	0	1	4	3	9	10	13	12	
 8	1	2	5	4	10	11	14	13	
 8	4	5	8	7	13	14	17	16	
 8	3	4	7	6	12	13	16	15	
 8	9	10	13	12	18	19	22	21	
 8	10	11	14	13	19	20	23	22	
 8	13	14	17	16	22	23	26	25	
 8	12	13	16	15	21	22	25	24	

CELL_TYPES	8
 12
 12
 12
 12
 12
 12
 12
 12

POINT_DATA	27
VECTORS	u 	float 
0.0	0.0	0.0
-0.0126096189	0.0	0.0
-0.0248463837	0.0	0.0
0.0	-0.0086540974	0.0
-0.0126612984	-0.0086809086	0.0
-0.025576063	-0.0084214647	0.0
0.0	-0.0161141581	0.0
-0.0128368339	-0.0183548848	0.0
-0.0256654825	-0.0158081207	0.0
-0.0138545017	-0.0066502492	-0.0246368819
-0.0125684361	-0.0041018068	-0.001910311
-0.0113785741	-0.006327019	-0.0246415035
-0.013844465	-0.0087411577	-0.0097963259
-0.0126971684	-0.0086606872	0.0128446677
-0.0114907624	-0.0084664733	-0.0098378234
-0.0139817735	-0.0111081384	-0.0245393266
-0.0127977459	-0.0129477365	-0.001828749
-0.011621903	-0.0108346184	-0.0245757674
-0.1284648136	-0.1090364047	0.0339118986
-0.012565868	-0.1077993908	0.0796176503
0.103382224	-0.1087759906	0.0338668066
-0.1283758479	-0.0088619497	0.0681921199
-0.0126647419	-0.0086845467	0.1141164192
0.103018602	-0.0085789651	0.0681738907
-0.1287362371	0.0914430422	0.0339664742
-0.0127784636	0.0903026167	0.0797313035
0.1031836417	0.0917187745	0.0339358944

VECTORS	v 	float 
0.0	0.0	0.0
-0.0001037864	0.0	0.0
-0.0002036674	0.0	0.0
0.0	-0.0001495354	0.0
-0.0001116568	-0.0001671199	0.0
-0.0002262651	-0.0001524091	0.0
0.0	-0.0003052591	0.0
-0.000102938	-0.0003289801	0.0
-0.0002000196	-0.0003108519	0.0
-0.0004041702	-0.0004522746	0.000125624
-0.000109449	-0.0004866679	8.02463e-05
0.000184402	-0.0004550441	0.0001254674
-0.0004022941	-0.0001594334	0.0001128762
-0.0001067178	-0.0001571107	8.02792e-05
0.0001895124	-0.0001617169	0.0001149063
-0.0004028449	0.000134937	0.0001247801
-0.0001073255	0.0001707263	7.96665e-05
0.0001867249	0.0001329985	0.0001247348
0.000369239	0.0003245002	0.000336958
-0.0001087447	0.0002548266	-5.07908e-05
-0.0005866807	0.000322288	0.0003375123
0.0003397648	-0.0001564781	1.68756e-05
-0.000108699	-0.0001589817	-0.0003597019
-0.0005571507	-0.0001588516	1.79632e-05
0.0003715037	-0.0006380504	0.0003357733
-0.0001070258	-0.0005719861	-5.11033e-05
-0.0005851622	-0.0006404593	0.0003363587

VECTORS	a 	float 
0.0	0.0	0.0
0.8960269833	0.0	0.0
1.7912959661	0.0	0.0
0.0	0.717210961	0.0
0.8936040228	0.71533505	0.0
1.7878273515	0.7173374305	0.0
0.0	1.4333828597	0.0
0.8967941868	1.4313634325	0.0
1.7929630001	1.4336218862	0.0
0.0023595761	0.0031096557	-3.0796746819
0.8945935214	0.0008715601	-3.0825422241
1.7870849894	0.0027243291	-3.0798118013
0.0007829483	0.7163342481	-3.0803146901
0.8953478369	0.7165957785	-3.0828274561
1.7896684902	0.7159637441	-3.0802938367
0.0025611744	1.4298438573	-3.0798366335
0.8947855761	1.4321083985	-3.082962504
1.7872192663	1.4294941359	-3.0799472179
-0.0041313331	-0.0030653254	-6.1579192672
0.8950389973	-0.00604036	-6.1658612999
1.7941753002	-0.0033461301	-6.1582703884
-0.008490065	0.7168424085	-6.1625821408
0.8949210688	0.716542843	-6.1694908088
1.7983797237	0.7165280763	-6.1623255113
-0.0037899038	1.4367043182	-6.158291057
0.8953067754	1.4391651425	-6.166006047
1.7943991587	1.4363508731	-6.1586165841

SCALARS	theta	float 1
LOOKUP_TABLE	default
298.4205511805
298.3678161112
298.415412783
298.3799744638
298.3221103549
298.3838417525
298.4270395962
298.3634270849
298.4240296813
299.3830530617
299.5039945141
299.3827492749
299.5081566949
299.6286475723
299.5069065126
299.3822395226
299.5062898677
299.3828370858
323.3378143103
323.682898729
323.3382999255
323.6501085523
323.9959648794
323.6507614865
323.3386227927
323.6819818116
323.338158413

SCALARS	sig_11	float	1
LOOKUP_TABLE	default
-29.4894179799
-10.0335735405
-28.2111105462
-16.3186271532
1.2864482882
-16.7285512892
-28.9490179431
-12.2188351136
-29.0642904512
30.8823420398
44.5140328617
30.804896313
41.9826552918
55.7957981158
42.008045102
30.44906736
44.2780808498
30.4442311788
-82.5533299529
-71.9567655492
-82.5400938065
-73.0185974793
-62.360945838
-73.0244298465
-82.4741340086
-71.9199379337
-82.4732269092

SCALARS	sig_22	float	1
LOOKUP_TABLE	default
-28.8816911771
-10.8811514106
-27.5917508739
-14.599413616
0.4047980332
-14.3611963927
-26.0447279208
-13.5564112047
-25.8653492252
24.0332351508
33.5107954611
23.9820893079
35.5248115061
45.2695882037
35.5420816024
23.7751748105
33.6508060319
23.7966558769
-64.4991297023
-57.047803653
-64.4969134435
-54.3674302435
-46.8923348104
-54.3658356274
-64.4049659488
-57.0996779689
-64.4191055045

SCALARS	sig_33	float	1
LOOKUP_TABLE	default
-35.1198979451
10.2979212704
-34.3445369171
-4.6098294406
39.2788054648
-4.7612316178
-33.9414538676
9.0347484476
-33.9917808102
48.510401175
88.274251126
48.4400530903
79.5973669414
119.5630208247
79.5903807985
48.3734644026
88.3433660253
48.3490289482
-204.0206397452
-167.2830866015
-204.0746941661
-171.815404664
-134.8281385719
-171.7901852374
-204.0273442157
-167.2444473828
-204.0063105403

SCALARS vonMises	float	1
LOOKUP_TABLE	default
17.6469735517
24.4972038677
17.8639696403
22.9767332991
36.1543468048
23.2515751946
19.967925949
25.8621784119
20.2734592548
129.3288822906
117.6596437399
129.7449961133
114.681517671
99.0775459543
114.6262772801
130.0532327878
117.0624347272
130.0233170143
163.897323202
150.2439403871
164.0288074274
155.7666714634
142.9733382247
155.7382365475
164.1551658403
150.1215512312
164.123527725
