# vtk DataFile Version 2.0
Results
ASCII
DATASET UNSTRUCTURED_GRID
POINTS         27           float
0.0	0.0	0.0	
50.0	0.0	0.0	
100.0	0.0	0.0	
0.0	40.0	0.0	
50.0	40.0	0.0	
100.0	40.0	0.0	
0.0	80.0	0.0	
50.0	80.0	0.0	
100.0	80.0	0.0	
0.0	0.0	70.0	
50.0	0.0	70.0	
100.0	0.0	70.0	
0.0	40.0	70.0	
50.0	40.0	70.0	
100.0	40.0	70.0	
0.0	80.0	70.0	
50.0	80.0	70.0	
100.0	80.0	70.0	
0.0	0.0	140.0	
50.0	0.0	140.0	
100.0	0.0	140.0	
0.0	40.0	140.0	
50.0	40.0	140.0	
100.0	40.0	140.0	
0.0	80.0	140.0	
50.0	80.0	140.0	
100.0	80.0	140.0	

CELLS	8	72
 8	0	1	4	3	9	10	13	12	
 8	1	2	5	4	10	11	14	13	
 8	4	5	8	7	13	14	17	16	
 8	3	4	7	6	12	13	16	15	
 8	9	10	13	12	18	19	22	21	
 8	10	11	14	13	19	20	23	22	
 8	13	14	17	16	22	23	26	25	
 8	12	13	16	15	21	22	25	24	

CELL_TYPES	8
 12
 12
 12
 12
 12
 12
 12
 12

POINT_DATA	27
VECTORS	u 	float 
0.0	0.0	0.0
-0.012831441	0.0	0.0
-0.0252847215	0.0	0.0
0.0	-0.0089558798	0.0
-0.0128815957	-0.0089831032	0.0
-0.0260208644	-0.0087254057	0.0
0.0	-0.0167236208	0.0
-0.0130566059	-0.0189546134	0.0
-0.0260991308	-0.0164219049	0.0
-0.014669944	-0.007531288	-0.0243857279
-0.0127898895	-0.0050332099	-0.0017436403
-0.0110071254	-0.0072106457	-0.0243897455
-0.0146532604	-0.0090424436	-0.0095697521
-0.012917921	-0.0089628442	0.0129956628
-0.0111223197	-0.0087701368	-0.0096103816
-0.0147955648	-0.0108282708	-0.0242889305
-0.0130172581	-0.0126221042	-0.0016629
-0.0112485047	-0.0105570704	-0.0243247974
-0.127740358	-0.1084063589	0.0345298717
-0.0127879769	-0.1072462043	0.0795761649
0.1022139363	-0.1081482982	0.0344854733
-0.1276543457	-0.0091622766	0.068246475
-0.0128857766	-0.0089863004	0.1135179922
0.1018544874	-0.0088816955	0.0682288727
-0.1280097008	0.0902116491	0.0345837208
-0.012998708	0.0891466844	0.0796889084
0.1020171942	0.0904850699	0.0345538346

VECTORS	v 	float 
0.0	0.0	0.0
-9.75914e-05	0.0	0.0
-0.0001914105	0.0	0.0
0.0	-0.0001426239	0.0
-0.0001053754	-0.0001600351	0.0
-0.0002136066	-0.0001454436	0.0
0.0	-0.0002913417	0.0
-9.67668e-05	-0.0003148856	0.0
-0.0001878263	-0.0002968198	0.0
-0.0003902746	-0.000437894	0.0001258513
-0.0001031877	-0.0004710873	8.04685e-05
0.0001830613	-0.0004406133	0.0001256839
-0.0003885881	-0.0001524299	0.0001125929
-0.0001004923	-0.0001501204	7.96768e-05
0.0001882315	-0.0001546672	0.0001145892
-0.0003889797	0.0001345365	0.0001250192
-0.0001011049	0.0001691558	7.99031e-05
0.000185339	0.0001326406	0.0001249643
0.0003667139	0.0003215574	0.000330156
-0.000102481	0.0002542026	-5.04578e-05
-0.0005716375	0.0003193932	0.0003306899
0.0003374955	-0.0001495123	1.65495e-05
-0.0001024464	-0.0001519764	-0.000353159
-0.0005423683	-0.0001518381	1.76199e-05
0.0003689356	-0.0006211615	0.0003289872
-0.0001007985	-0.0005573693	-5.07591e-05
-0.0005701526	-0.0006235243	0.0003295512

VECTORS	a 	float 
0.0	0.0	0.0
0.8960786706	0.0	0.0
1.7914036442	0.0	0.0
0.0	0.7172383468	0.0
0.8936042562	0.7152652278	0.0
1.7878251708	0.7173562813	0.0
0.0	1.4334177894	0.0
0.8968482101	1.4312407453	0.0
1.7930838229	1.4336404861	0.0
0.0024047236	0.0030844239	-3.0796697919
0.8946110399	0.0007952098	-3.082558091
1.7870740032	0.0026901233	-3.0798098403
0.0008150376	0.7163056274	-3.0803149124
0.8953800696	0.7165825919	-3.0828027554
1.7897005071	0.7159281096	-3.0802859342
0.0026097244	1.4298170295	-3.0798350255
0.8948096424	1.4321527135	-3.0829806258
1.7872155971	1.4294619445	-3.0799476986
-0.0041203421	-0.0030371657	-6.1578198504
0.8950633479	-0.0061778603	-6.1660696993
1.7942122927	-0.0033241104	-6.1581713849
-0.0086349549	0.7168284602	-6.1626878363
0.8949425089	0.7165185523	-6.1698579205
1.7985689444	0.7165072047	-6.1624262737
-0.0037717474	1.436646928	-6.1581975523
0.8953358976	1.4392562258	-6.1662140796
1.7944398502	1.4362860338	-6.1585231696

SCALARS	theta	float 1
LOOKUP_TABLE	default
298.3320318189
298.2833566511
298.3271933213
298.2932736079
298.2395463679
298.297088178
298.3384600122
298.2789268364
298.3355500426
299.5325424136
299.6569240993
299.5322101851
299.6565444565
299.7805298313
299.6553219086
299.5317582844
299.6591514893
299.5323256266
323.1273063113
323.474531901
323.1277860183
323.434923688
323.7829087401
323.4355527009
323.128073892
323.4736751611
323.1276319975

SCALARS	sig_11	float	1
LOOKUP_TABLE	default
-27.9834448085
-8.677997767
-26.7021934869
-14.863843708
2.5908383338
-15.283401414
-27.4423268809
-10.8502590741
-27.5488996825
29.784887147
43.1078534268
29.7070224847
40.6604232488
54.1660216351
40.686397895
29.3534124826
42.8735966444
29.3481071096
-80.8185338223
-70.6895313807
-80.8048773245
-71.6491395924
-61.4596680019
-71.6551261045
-80.7395013816
-70.6533632297
-80.7383163958

SCALARS	sig_22	float	1
LOOKUP_TABLE	default
-27.6340088139
-9.7638206049
-26.3524870426
-13.4074053417
1.478837043
-13.1797898442
-24.8093428429
-12.4251627441
-24.6336352569
23.1526288209
32.419595118
23.1007303223
34.4203795985
43.9547217442
34.437202507
22.895587068
32.5592435797
22.9162509893
-63.1117965494
-55.9815433713
-63.1090750214
-53.3565926798
-46.2027296606
-53.3547661937
-63.0179040548
-56.0335152426
-63.03164212

SCALARS	sig_33	float	1
LOOKUP_TABLE	default
-33.0359848756
12.1315862841
-32.2631970129
-2.6043091641
41.0445723619
-2.760169142
-31.8621016824
10.8756433617
-31.9101425217
46.8049534638
85.8882222975
46.7347796569
77.3510884473
116.6396879734
77.3447129131
46.6680709013
85.9573516688
46.6440473383
-200.2814198336
-164.6651300741
-200.3350098908
-169.0645448556
-133.1990894662
-169.0394998677
-200.2880830896
-164.6271126738
-200.2668553498

SCALARS vonMises	float	1
LOOKUP_TABLE	default
18.6385936534
24.1994652929
18.7019678586
23.8464421259
36.1881492249
24.1234998964
20.5531065521
25.7018589687
20.8572626307
126.4762222678
115.4460379465
126.8845651907
112.6277513629
97.7780582706
112.5720784863
127.1799573077
114.8662519464
127.1521591201
161.3756575587
148.1537045479
161.5074897186
153.4945456135
141.0975903721
153.4654078376
161.6324443623
148.0321529005
161.6016222785
