# vtk DataFile Version 2.0
Results
ASCII
DATASET UNSTRUCTURED_GRID
POINTS         27           float
0.0	0.0	0.0	
50.0	0.0	0.0	
100.0	0.0	0.0	
0.0	40.0	0.0	
50.0	40.0	0.0	
100.0	40.0	0.0	
0.0	80.0	0.0	
50.0	80.0	0.0	
100.0	80.0	0.0	
0.0	0.0	70.0	
50.0	0.0	70.0	
100.0	0.0	70.0	
0.0	40.0	70.0	
50.0	40.0	70.0	
100.0	40.0	70.0	
0.0	80.0	70.0	
50.0	80.0	70.0	
100.0	80.0	70.0	
0.0	0.0	140.0	
50.0	0.0	140.0	
100.0	0.0	140.0	
0.0	40.0	140.0	
50.0	40.0	140.0	
100.0	40.0	140.0	
0.0	80.0	140.0	
50.0	80.0	140.0	
100.0	80.0	140.0	

CELLS	8	72
 8	0	1	4	3	9	10	13	12	
 8	1	2	5	4	10	11	14	13	
 8	4	5	8	7	13	14	17	16	
 8	3	4	7	6	12	13	16	15	
 8	9	10	13	12	18	19	22	21	
 8	10	11	14	13	19	20	23	22	
 8	13	14	17	16	22	23	26	25	
 8	12	13	16	15	21	22	25	24	

CELL_TYPES	8
 12
 12
 12
 12
 12
 12
 12
 12

POINT_DATA	27
VECTORS	u 	float 
0.0	0.0	0.0
-0.007503012	0.0	0.0
-0.0147431884	0.0	0.0
0.0	-0.0021806186	0.0
-0.0075885332	-0.0022077347	0.0
-0.0153472149	-0.0019043983	0.0
0.0	-0.0030563256	0.0
-0.0077731395	-0.0054936466	0.0
-0.0156580922	-0.0026604349	0.0
0.0022571095	0.01052109	-0.0283687466
-0.007471592	0.0141886088	-0.0043478806
-0.0172728624	0.0108966466	-0.0283863776
0.0021736931	-0.0022828871	-0.0132449037
-0.007613814	-0.0021834852	0.0104771767
-0.0173652851	-0.0019590389	-0.0133056821
0.0020960709	-0.0153907484	-0.0282571344
-0.0077405079	-0.0182550765	-0.0042474008
-0.0175569124	-0.0150692548	-0.0283055101
-0.1399828601	-0.1192624814	0.0229428351
-0.0074539408	-0.1162202228	0.080293407
0.1251154957	-0.118952885	0.0228827715
-0.1397486154	-0.0024229229	0.0673218082
-0.0075753139	-0.0022165099	0.1247197869
0.1245809375	-0.0020907019	0.0672903312
-0.140297223	0.1145612063	0.0230133386
-0.0077051047	0.1116440328	0.0804249843
0.1248794949	0.1148840718	0.0229675487

VECTORS	v 	float 
0.0	0.0	0.0
-0.0002371042	0.0	0.0
-0.0004701201	0.0	0.0
0.0	-0.0002849948	0.0
-0.0002371286	-0.000287094	0.0
-0.0004771651	-0.0002866343	0.0
0.0	-0.000575498	0.0
-0.0002339777	-0.000570313	0.0
-0.0004635366	-0.000579023	0.0
-0.0006820272	-0.0007146709	0.0001226846
-0.0002375559	-0.000766826	7.96254e-05
0.0002061439	-0.000717437	0.0001230093
-0.000682902	-0.0002853445	0.0001155879
-0.000236273	-0.0002857902	8.40906e-05
0.0002110574	-0.00028803	0.0001165238
-0.0006802202	0.000145446	0.0001218438
-0.0002355896	0.000193884	7.81712e-05
0.000208106	0.000142815	0.0001221527
0.0003998536	0.0003622851	0.0004034335
-0.0002379406	0.0002757996	-4.12514e-05
-0.0008753276	0.0003596177	0.0004035021
0.0003850104	-0.0002838166	1.03386e-05
-0.0002369294	-0.000285504	-0.0004229533
-0.0008593161	-0.0002864749	1.13784e-05
0.0004022411	-0.0009305144	0.0004020843
-0.0002357995	-0.0008461759	-4.21267e-05
-0.0008733117	-0.000933114	0.0004022097

VECTORS	a 	float 
0.0	0.0	0.0
0.8955792163	0.0	0.0
1.7905157378	0.0	0.0
0.0	0.7169176145	0.0
0.8939417967	0.7159818706	0.0
1.7884034464	0.7170738903	0.0
0.0	1.4331227246	0.0
0.8961828728	1.4324158503	0.0
1.7917780285	1.4334188352	0.0
0.0021276943	0.0031376458	-3.0801576585
0.8946337814	0.0017367142	-3.0822587595
1.7873538958	0.0028828214	-3.0802493971
0.0009908651	0.7165425071	-3.0805769033
0.8951514495	0.7166634213	-3.0826915171
1.789115313	0.7162882824	-3.0806106085
0.0022682305	1.4301449005	-3.0802647758
0.8947471281	1.4314544512	-3.0825868596
1.7874155291	1.4298986705	-3.0803420228
-0.0040363954	-0.0031951951	-6.158879466
0.8949507695	-0.0044279468	-6.1629560194
1.7939147667	-0.0033822875	-6.1591602962
-0.0064745712	0.7168643325	-6.1609097077
0.8948731303	0.71668649	-6.1644496959
1.7962513116	0.7166545584	-6.1607334903
-0.0038042123	1.4368972395	-6.1591441762
0.8951373303	1.4378175383	-6.1630725022
1.7940716076	1.4366582576	-6.1594075466

SCALARS	theta	float 1
LOOKUP_TABLE	default
300.2923916884
300.1477657164
300.2819522008
300.21881426
300.070490578
300.2214594185
300.2951762034
300.1490707822
300.2922593992
296.6542541478
296.6379922948
296.6547045808
296.7353450736
296.7170778424
296.7340900662
296.653595179
296.64088972
296.6544178994
327.2156472353
327.3639991731
327.2161190612
327.4754619584
327.6245475965
327.4762833557
327.2171376161
327.3619569092
327.2164138442

SCALARS	sig_11	float	1
LOOKUP_TABLE	default
-58.9327768567
-36.1828698536
-57.7203586628
-44.5645429245
-23.7252906067
-44.7523561951
-58.3455932731
-38.700683949
-58.6648498124
50.2932281761
71.1669279038
50.220944362
67.0448077475
88.067197353
67.0557749677
49.822432867
70.8961780071
49.8278423564
-117.4799251091
-95.3728771654
-117.4741572456
-98.3955846349
-76.213694198
-98.3960552791
-117.3959142195
-95.3222495869
-117.4019768675

SCALARS	sig_22	float	1
LOOKUP_TABLE	default
-53.2798115334
-32.4569140364
-51.8206678036
-37.6887540504
-20.1604355534
-37.1999039182
-50.138096481
-35.4678345985
-49.9038226609
39.484800727
53.9817841098
39.4456825041
56.6909473048
71.4452161093
56.7156101836
39.2043013057
54.131152762
39.2427585146
-92.7492474764
-77.20845389
-92.7569231434
-72.6963233066
-57.1281223048
-72.6974427966
-92.6481230602
-77.2590391076
-92.6722712406

SCALARS	sig_33	float	1
LOOKUP_TABLE	default
-75.8010207723
-25.55338933
-74.9779880609
-43.7859835145
4.6413052219
-43.8179672527
-74.4657381755
-27.0264889381
-74.5893665152
79.4718750719
133.0356469631
79.3920881502
121.9340635273
175.6068065686
121.9109675632
79.3346053634
133.1054780444
79.3006393297
-275.1510923248
-215.1026696698
-275.212721598
-221.8669835807
-161.5644593901
-221.8339310939
-275.1551946308
-215.0542769018
-275.1400719993

SCALARS vonMises	float	1
LOOKUP_TABLE	default
54.478205442
54.6136654142
55.3326236853
40.3418614578
43.0101656625
40.3841490936
56.8379400914
53.8935597538
56.7609180894
186.5975998051
161.4272798784
187.041520437
156.0469521245
123.953025776
156.0189140058
187.3891951914
160.5764312
187.304040606
210.2098781978
187.8782895883
210.332239862
196.9225520772
176.0814864135
196.907382044
210.4904471602
187.7391315038
210.4411932066
