# vtk DataFile Version 2.0
Results
ASCII
DATASET UNSTRUCTURED_GRID
POINTS         27           float
0.0	0.0	0.0	
50.0	0.0	0.0	
100.0	0.0	0.0	
0.0	40.0	0.0	
50.0	40.0	0.0	
100.0	40.0	0.0	
0.0	80.0	0.0	
50.0	80.0	0.0	
100.0	80.0	0.0	
0.0	0.0	70.0	
50.0	0.0	70.0	
100.0	0.0	70.0	
0.0	40.0	70.0	
50.0	40.0	70.0	
100.0	40.0	70.0	
0.0	80.0	70.0	
50.0	80.0	70.0	
100.0	80.0	70.0	
0.0	0.0	140.0	
50.0	0.0	140.0	
100.0	0.0	140.0	
0.0	40.0	140.0	
50.0	40.0	140.0	
100.0	40.0	140.0	
0.0	80.0	140.0	
50.0	80.0	140.0	
100.0	80.0	140.0	

CELLS	8	72
 8	0	1	4	3	9	10	13	12	
 8	1	2	5	4	10	11	14	13	
 8	4	5	8	7	13	14	17	16	
 8	3	4	7	6	12	13	16	15	
 8	9	10	13	12	18	19	22	21	
 8	10	11	14	13	19	20	23	22	
 8	13	14	17	16	22	23	26	25	
 8	12	13	16	15	21	22	25	24	

CELL_TYPES	8
 12
 12
 12
 12
 12
 12
 12
 12

POINT_DATA	27
VECTORS	u 	float 
0.0	0.0	0.0
0.0036473307	0.0	0.0
0.007299647	0.0	0.0
0.0	0.0048806445	0.0
0.0036143152	0.0048414965	0.0
0.0072203293	0.004953543	0.0
0.0	0.0100408062	0.0
0.0035671219	0.009464032	0.0
0.0070637674	0.0101664109	0.0
0.0098808355	0.0116302529	-0.0096225727
0.0036476758	0.0130768174	-0.0052571668
-0.002588613	0.0117307136	-0.0096349882
0.0100525087	0.0048306126	-0.0070608126
0.0036120402	0.0048665976	-0.0029184641
-0.0028283449	0.0049217104	-0.0070848385
0.0098319101	-0.0020349048	-0.0095979144
0.0035745517	-0.0032776129	-0.0052170386
-0.0026672839	-0.0019458196	-0.0096141929
-0.0267197844	-0.0230691845	-0.0092779984
0.0036605466	-0.0211325656	0.005309829
0.0340448682	-0.022980799	-0.0092983539
-0.0261533853	0.0047957248	0.0025254928
0.003625111	0.0048479969	0.0169807082
0.0334026661	0.0048866907	0.0025112722
-0.0268057206	0.032690214	-0.0092495237
0.0035899605	0.030797712	0.0053443731
0.0339801136	0.0327785255	-0.0092680284

VECTORS	v 	float 
0.0	0.0	0.0
-0.0021275615	0.0	0.0
-0.0042560317	0.0	0.0
0.0	-0.0015956259	0.0
-0.0021252227	-0.0015876304	0.0
-0.0042498088	-0.0015906955	0.0
0.0	-0.0031739774	0.0
-0.0021315006	-0.0031892769	0.0
-0.0042687207	-0.0031655427	0.0
0.0005201376	0.0006264609	0.0073609191
-0.0021247344	0.0006991438	0.0076159429
-0.0047695179	0.0006324763	0.0073604862
0.0005149964	-0.0015922955	0.0075089671
-0.0021277112	-0.001592047	0.0077502549
-0.0047706573	-0.0015869967	0.0075069666
0.0005172915	-0.0038152322	0.0073626261
-0.0021291919	-0.0038789601	0.0076176524
-0.0047743466	-0.0038101318	0.0073619073
-0.0016629361	-0.0014345952	0.0153783276
-0.0021245603	-0.0013349115	0.0162319811
-0.0025859677	-0.0014294468	0.0153771392
-0.0016476934	-0.0015954868	0.0160707918
-0.0021262391	-0.0015916664	0.016916137
-0.0026048264	-0.0015901111	0.0160696699
-0.0016680202	-0.0017544557	0.0153801132
-0.0021286489	-0.0018504679	0.0162335493
-0.0025897125	-0.0017492174	0.0153790443

VECTORS	a 	float 
0.0	0.0	0.0
-0.1391413182	0.0	0.0
-0.2782693521	0.0	0.0
0.0	-0.1116207756	0.0
-0.1391079053	-0.111573777	0.0
-0.2782259662	-0.1116308463	0.0
0.0	-0.2232585652	0.0
-0.1391393269	-0.2231343756	0.0
-0.2782599502	-0.2232763275	0.0
-0.0016469508	-0.0018889101	0.4783146858
-0.1391235543	-0.0020742924	0.4777933003
-0.2766042394	-0.0018961791	0.4783184894
-0.0016739275	-0.1115922386	0.4780116304
-0.1391285997	-0.1116041386	0.4775152673
-0.2765788983	-0.1115991815	0.4780137538
-0.001642607	-0.2212928156	0.4783148543
-0.1391171477	-0.2211373118	0.4777926603
-0.2765965203	-0.2213003141	0.4783186188
0.0036686865	0.0031527556	0.9553111487
-0.1391309476	0.0028859785	0.9534284499
-0.2819299992	0.0031445867	0.9553188291
0.0035956942	-0.1115972617	0.9537724539
-0.1391247262	-0.1115982666	0.9518930833
-0.2818464939	-0.1116048165	0.9537703041
0.0036745036	-0.2263499325	0.9553147218
-0.1391251306	-0.2260800132	0.9534237867
-0.2819239199	-0.2263562105	0.9553217162

SCALARS	theta	float 1
LOOKUP_TABLE	default
301.3565336997
301.223138887
301.3499797591
301.3053884275
301.2044613584
301.3025613188
301.3317766854
301.2490193605
301.3351814052
298.1814185895
297.9667860552
298.1829154628
297.9755481388
297.7572358799
297.9762016117
298.1878835433
297.9616826493
298.1871077095
306.6418746921
306.2738355936
306.6415898247
306.2684600878
305.8988645583
306.2679195233
306.6389822511
306.2759471637
306.6394885206

SCALARS	sig_11	float	1
LOOKUP_TABLE	default
-27.9141705629
-20.8453065861
-27.6599477221
-23.5830958719
-17.3387371132
-23.4943097477
-27.5066671176
-21.7860638415
-27.7119566425
15.6464642504
25.8556634152
15.6245452857
25.5051942999
35.6999881138
25.4958769833
15.5057608244
25.8049073257
15.5152602039
-43.9458288753
-29.0557946138
-43.945557706
-28.6168949588
-13.677754194
-28.6082233811
-43.8993587691
-29.0562796772
-43.9094979092

SCALARS	sig_22	float	1
LOOKUP_TABLE	default
-24.128980405
-17.7939928934
-23.7158844916
-19.4317882382
-14.2513755813
-19.1705529904
-23.1263401678
-18.7712452213
-23.0867808712
11.8187298102
19.4023326934
11.8078425579
22.0729511206
29.6719694169
22.0767851589
11.7275040605
19.4572402434
11.7468565769
-36.3792548481
-25.0773661371
-36.3850343148
-20.2114251277
-8.8700519863
-20.2061275538
-36.335433982
-25.1032987257
-36.352000717

SCALARS	sig_33	float	1
LOOKUP_TABLE	default
-49.8869925022
-37.8675748403
-49.6600248252
-42.5223088851
-31.4415080809
-42.4387238848
-49.2702774232
-38.5241203085
-49.3816898186
14.1339348655
32.6989005341
14.0994107892
31.1515214339
49.6593268938
31.1308779663
14.0830055629
32.7363080623
14.0728241323
-100.0467989479
-73.3707621217
-100.0575682499
-73.2259300937
-46.4518515544
-73.2053916673
-100.0108653251
-73.3859731738
-100.0186558571

SCALARS vonMises	float	1
LOOKUP_TABLE	default
42.4170787192
35.362881915
42.5763785805
32.4641156972
20.8615364068
32.5131544701
42.8296672739
35.005666588
42.7756498517
62.1727448018
49.4147736239
62.2607224411
47.8768607431
29.4765288998
47.8966862685
62.3424780911
49.1744437161
62.3099306925
64.39261255
54.3140138266
64.4098871856
57.3449005164
47.0767122022
57.3424648367
64.4543691491
54.2815399434
64.4384529097
