# vtk DataFile Version 2.0
Results
ASCII
DATASET UNSTRUCTURED_GRID
POINTS         27           float
0.0	0.0	0.0	
50.0	0.0	0.0	
100.0	0.0	0.0	
0.0	40.0	0.0	
50.0	40.0	0.0	
100.0	40.0	0.0	
0.0	80.0	0.0	
50.0	80.0	0.0	
100.0	80.0	0.0	
0.0	0.0	70.0	
50.0	0.0	70.0	
100.0	0.0	70.0	
0.0	40.0	70.0	
50.0	40.0	70.0	
100.0	40.0	70.0	
0.0	80.0	70.0	
50.0	80.0	70.0	
100.0	80.0	70.0	
0.0	0.0	140.0	
50.0	0.0	140.0	
100.0	0.0	140.0	
0.0	40.0	140.0	
50.0	40.0	140.0	
100.0	40.0	140.0	
0.0	80.0	140.0	
50.0	80.0	140.0	
100.0	80.0	140.0	

CELLS	8	72
 8	0	1	4	3	9	10	13	12	
 8	1	2	5	4	10	11	14	13	
 8	4	5	8	7	13	14	17	16	
 8	3	4	7	6	12	13	16	15	
 8	9	10	13	12	18	19	22	21	
 8	10	11	14	13	19	20	23	22	
 8	13	14	17	16	22	23	26	25	
 8	12	13	16	15	21	22	25	24	

CELL_TYPES	8
 12
 12
 12
 12
 12
 12
 12
 12

POINT_DATA	27
VECTORS	u 	float 
0.0	0.0	0.0
-0.0016971239	0.0	0.0
-0.0030764738	0.0	0.0
0.0	-0.0031931374	0.0
-0.0017027603	-0.0032167702	0.0
-0.0036333871	-0.0030852865	0.0
0.0	-0.0057502438	0.0
-0.0018022983	-0.006967811	0.0
-0.0035042337	-0.0056353471	0.0
-0.0260742175	-0.0233983284	0.0055938621
-0.0016657538	-0.0225202322	0.0175497605
0.0226671977	-0.0232436167	0.005601021
-0.0260517699	-0.0032368414	0.0140382461
-0.0017329817	-0.0032026526	0.0260704251
0.0226419377	-0.0031070982	0.0140262058
-0.0261231617	0.0167763767	0.0056386417
-0.0017744442	0.0162574856	0.0175832193
0.0225475216	0.0169071396	0.0056249872
-0.0610188412	-0.0519674535	0.0640539673
-0.0016741148	-0.0521516588	0.0766458245
0.0577062393	-0.0518456679	0.064037718
-0.0612112883	-0.0032928781	0.0722134041
-0.0017173652	-0.0032072043	0.0850310878
0.0577504821	-0.0031586806	0.072212618
-0.0611508552	0.0454513761	0.0640708278
-0.0017740903	0.0456707505	0.0766966873
0.0576144179	0.0455824679	0.0640635694

VECTORS	v 	float 
0.0	0.0	0.0
7.53031e-05	0.0	0.0
0.0001541765	0.0	0.0
0.0	5.37468e-05	0.0
8.41492e-05	6.34904e-05	0.0
0.0001651654	5.39911e-05	0.0
0.0	0.0001124145	0.0
7.32981e-05	0.0001231898	0.0
0.0001485358	0.0001131127	0.0
7.43537e-05	4.4427e-05	6.68195e-05
8.08877e-05	5.21986e-05	5.61841e-05
8.63442e-05	4.62568e-05	6.71822e-05
7.89627e-05	5.87333e-05	5.6458e-05
7.80586e-05	5.73117e-05	4.40951e-05
7.83268e-05	6.03038e-05	5.59227e-05
7.37376e-05	7.16918e-05	6.74385e-05
7.97873e-05	6.37183e-05	5.78655e-05
8.52961e-05	7.29463e-05	6.77334e-05
0.0001666691	0.0001387657	3.26974e-05
7.94596e-05	0.0001477593	2.0343e-05
-7.3381e-06	0.0001400993	3.35004e-05
0.0001820155	5.63294e-05	1.89254e-05
7.98172e-05	5.7836e-05	3.4329e-06
-2.29462e-05	5.7896e-05	1.79843e-05
0.0001647674	-2.58702e-05	3.43745e-05
7.81858e-05	-3.24919e-05	2.08033e-05
-8.2987e-06	-2.40435e-05	3.512e-05

VECTORS	a 	float 
0.0	0.0	0.0
-0.8941772195	0.0	0.0
-1.7842587806	0.0	0.0
0.0	-0.7224915934	0.0
-0.8842053316	-0.7123794666	0.0
-1.77186614	-0.722312596	0.0
0.0	-1.4389125757	0.0
-0.8969244452	-1.4293530547	0.0
-1.7914412985	-1.4385399532	0.0
0.0070844474	-0.0090472525	3.0690154111
-0.8879782797	0.0030653704	3.0867027751
-1.784301787	-0.0069240279	3.0695550562
0.0149777863	-0.7174561245	3.0772776225
-0.8912594083	-0.7189080041	3.0922755399
-1.7962192534	-0.7155859508	3.0767936794
0.006255526	-1.4275001288	3.0698686371
-0.8892201073	-1.4394098804	3.0884976289
-1.7854173751	-1.4258879782	3.070236868
0.0036022259	0.0021997724	6.1574608024
-0.8897298197	0.0167942598	6.1924804945
-1.7826474997	0.0036870246	6.1585455526
0.0257211872	-0.7200644754	6.1769378786
-0.8893022446	-0.7183690779	6.2074311468
-1.8048518872	-0.718338297	6.1758759769
0.0016339304	-1.441946918	6.1592614615
-0.8911003068	-1.4540082982	6.1931065292
-1.7837324731	-1.439985919	6.1602435425

SCALARS	theta	float 1
LOOKUP_TABLE	default
299.2734660782
299.3216525708
299.2764197564
299.2963227991
299.3397856572
299.2962145673
299.2770694805
299.3171765555
299.2769519774
305.1047230206
305.1295974937
305.1044191379
305.115949223
305.1417343403
305.1160798644
305.1037491297
305.1299098275
305.1037471603
311.6984383722
311.709210703
311.6983601487
311.7010544574
311.7118737608
311.7009804791
311.698675031
311.7092297328
311.6986954714

SCALARS	sig_11	float	1
LOOKUP_TABLE	default
14.367894851
23.7020301163
15.1882214079
21.4282242795
29.6502628892
21.0362063476
14.7098107707
22.5866816388
14.7765812748
-7.0625095076
-3.180661205
-7.1215253488
-3.9898166824
0.0192184568
-3.9670592144
-7.2923603181
-3.298317873
-7.3044562905
-15.0757081148
-14.8331019018
-15.0584695802
-15.1351697681
-14.8663671588
-15.1408644023
-15.033953218
-14.8194771017
-15.027940218

SCALARS	sig_22	float	1
LOOKUP_TABLE	default
9.2369162428
17.9303754641
9.8788637049
16.8775944172
23.9616428738
16.8714705522
10.7718838702
16.5276455179
10.8168608328
-6.0292152001
-3.3732945739
-6.0776336461
-2.856065721
-0.0360255298
-2.8545618933
-6.1652470296
-3.2923747032
-6.1673122706
-10.8873582618
-10.6954344549
-10.8753051316
-11.0563062213
-10.85632531
-11.0511614487
-10.8360804996
-10.7269300853
-10.8369701967

SCALARS	sig_33	float	1
LOOKUP_TABLE	default
23.4799692256
46.3941149811
23.8990026641
40.3864297805
62.5553846417
40.2412052745
24.1218139479
45.7476947856
24.1266523968
-9.5252357386
1.6283949381
-9.5733060063
-1.6170567226
9.7097814468
-1.6149960995
-9.6021677836
1.6714032845
-9.6129326584
-43.4121923658
-42.4456800763
-43.4348271373
-43.9193043771
-42.8163715181
-43.9046992917
-43.420863797
-42.4303906886
-43.4023521091

SCALARS vonMises	float	1
LOOKUP_TABLE	default
61.3392461752
46.047489322
60.9139512425
49.672683796
32.5990897855
49.887405446
60.8058825964
47.0416565884
60.8603139601
41.6408522031
38.0145049243
41.5596833439
39.655897068
36.9422318293
39.6942204419
41.537131792
38.1656561439
41.5451255802
44.3104389591
44.3699843191
44.3962584776
44.5363189586
44.5442753689
44.5038923051
44.4538025957
44.311514734
44.4472357331
