# vtk DataFile Version 2.0
Results
ASCII
DATASET UNSTRUCTURED_GRID
POINTS         27           float
0.0	0.0	0.0	
50.0	0.0	0.0	
100.0	0.0	0.0	
0.0	40.0	0.0	
50.0	40.0	0.0	
100.0	40.0	0.0	
0.0	80.0	0.0	
50.0	80.0	0.0	
100.0	80.0	0.0	
0.0	0.0	70.0	
50.0	0.0	70.0	
100.0	0.0	70.0	
0.0	40.0	70.0	
50.0	40.0	70.0	
100.0	40.0	70.0	
0.0	80.0	70.0	
50.0	80.0	70.0	
100.0	80.0	70.0	
0.0	0.0	140.0	
50.0	0.0	140.0	
100.0	0.0	140.0	
0.0	40.0	140.0	
50.0	40.0	140.0	
100.0	40.0	140.0	
0.0	80.0	140.0	
50.0	80.0	140.0	
100.0	80.0	140.0	

CELLS	8	72
 8	0	1	4	3	9	10	13	12	
 8	1	2	5	4	10	11	14	13	
 8	4	5	8	7	13	14	17	16	
 8	3	4	7	6	12	13	16	15	
 8	9	10	13	12	18	19	22	21	
 8	10	11	14	13	19	20	23	22	
 8	13	14	17	16	22	23	26	25	
 8	12	13	16	15	21	22	25	24	

CELL_TYPES	8
 12
 12
 12
 12
 12
 12
 12
 12

POINT_DATA	27
VECTORS	u 	float 
0.0	0.0	0.0
-0.0003922964	0.0	0.0
-0.0004814101	0.0	0.0
0.0	-0.0020841396	0.0
-0.0003979477	-0.0021074197	0.0
-0.0010133018	-0.001981516	0.0
0.0	-0.003562841	0.0
-0.0004923934	-0.0047235342	0.0
-0.0008887854	-0.0034537494	0.0
-0.0249861955	-0.0224521183	0.0071409758
-0.0003626342	-0.0216169857	0.0185201815
0.0241889369	-0.0223048984	0.0071478218
-0.0249658434	-0.0021261256	0.0151831557
-0.0004265552	-0.0020934795	0.0266358574
0.0241662978	-0.0020026437	0.0151718011
-0.0250326497	0.0180586992	0.0071833998
-0.0004660602	0.0175656561	0.0185518815
0.0240749453	0.0181831716	0.0071703954
-0.0579974681	-0.0494001108	0.0646739879
-0.0003705955	-0.0495778107	0.0765482243
0.0572902408	-0.0492842314	0.0646585624
-0.0581851489	-0.002179187	0.0723468971
-0.0004117758	-0.002097725	0.0844368493
0.0573367385	-0.0020514769	0.0723462564
-0.05812307	0.0451080461	0.0646897064
-0.0004657426	0.0453190704	0.0765964493
0.0572028229	0.0452328259	0.0646828623

VECTORS	v 	float 
0.0	0.0	0.0
5.64844e-05	0.0	0.0
0.0001087457	0.0	0.0
0.0	5.91787e-05	0.0
5.0235e-05	5.36281e-05	0.0
0.0001039168	5.87455e-05	0.0
0.0	0.0001119125	0.0
5.87703e-05	0.0001122842	0.0
0.0001152809	0.0001113238	0.0
3.81537e-05	5.33318e-05	0.0001003668
5.25585e-05	4.09609e-05	4.99026e-05
6.81767e-05	5.14297e-05	0.000100061
3.04504e-05	5.67036e-05	6.77555e-05
5.4923e-05	5.74349e-05	1.85411e-05
7.82426e-05	5.50524e-05	6.80427e-05
3.87643e-05	6.1693e-05	9.97346e-05
5.36989e-05	7.23929e-05	4.83241e-05
6.92901e-05	6.0222e-05	9.95744e-05
0.0001425188	0.0001284846	3.46436e-05
5.38087e-05	0.0001191633	-2.99532e-05
-3.53462e-05	0.0001273289	3.39848e-05
0.0001256142	5.8527e-05	-5.5934e-06
5.35641e-05	5.72622e-05	-6.79671e-05
-1.79875e-05	5.71613e-05	-4.8908e-06
0.0001440709	-1.19008e-05	3.33492e-05
5.48124e-05	-4.0994e-06	-3.06997e-05
-3.45811e-05	-1.34373e-05	3.27178e-05

VECTORS	a 	float 
0.0	0.0	0.0
0.8935903991	0.0	0.0
1.7827881278	0.0	0.0
0.0	0.7227946856	0.0
0.8830181917	0.7120547088	0.0
1.7697427474	0.7225867278	0.0
0.0	1.4390784766	0.0
0.896500524	1.4290462256	0.0
1.79043729	1.4386507896	0.0
-0.0084469236	0.0093758133	-3.0676899368
0.8870126233	-0.0034793576	-3.0868658923
1.7838203968	0.0071077149	-3.068256845
-0.0167779501	0.7174483896	-3.0767830588
0.8904980602	0.7189901183	-3.0931507233
1.7964076606	0.7154536332	-3.0762642003
-0.0075704614	1.4272714292	-3.0685937903
0.8883419475	1.4398784374	-3.0887834178
1.7850205756	1.4255542273	-3.0689805662
-0.0041243128	-0.0023090147	-6.1573766254
0.888869692	-0.0175879824	-6.1943838705
1.7814161544	-0.0038929344	-6.1585177869
-0.0274651786	0.720224622	-6.1778730717
0.888417336	0.718418908	-6.2101467202
1.8048673369	0.718384537	-6.1767463397
-0.0020220217	1.4423485751	-6.1592939709
0.89032829	1.4549389838	-6.1950539804
1.7825677616	1.4402570748	-6.1603287986

SCALARS	theta	float 1
LOOKUP_TABLE	default
299.5449246597
299.5914785043
299.5477833953
299.5671461481
299.6091515796
299.5670362095
299.548376532
299.5871465592
299.5482428872
305.1436333098
305.1660663646
305.1433508014
305.1537473081
305.1770511404
305.153876153
305.1426818338
305.1663432173
305.1426833204
311.3619057605
311.3690189429
311.36182986
311.3628007613
311.3699619498
311.3627354755
311.3621241544
311.3690341254
311.3621487072

SCALARS	sig_11	float	1
LOOKUP_TABLE	default
13.9511200649
22.8245749187
14.7319430424
20.6678746069
28.4834641861
20.2944696311
14.2766902025
21.7643272989
14.3406041485
-6.9473818642
-3.2707409179
-7.0036630292
-4.0452339954
-0.2474784101
-4.023608656
-7.1660262986
-3.3826012292
-7.1775338822
-14.0942699579
-13.8901396657
-14.077863257
-14.1923575539
-13.9634342582
-14.1977939323
-14.0545537254
-13.8772022453
-14.0488738749

SCALARS	sig_22	float	1
LOOKUP_TABLE	default
9.0187416395
17.2848790935
9.6292558535
16.2858142877
23.0212000243
16.279895905
10.4793872117
15.9508114984
10.5220127859
-5.9174853536
-3.402868891
-5.9636841696
-2.9240317621
-0.2531919862
-2.9226857551
-6.0468110888
-3.3257064515
-6.0487830528
-10.1517721835
-9.9892186509
-10.1402924321
-10.3617495929
-10.1916922374
-10.3568223024
-10.102926412
-10.0191641153
-10.1038059762

SCALARS	sig_33	float	1
LOOKUP_TABLE	default
22.734175565
44.5285251345
23.1325490182
38.8242184808
59.9109968587
38.6860445379
23.3447782705
43.914232696
23.3496093693
-9.3974083242
1.1348409266
-9.4432779497
-1.9514516289
8.7459881784
-1.9495551522
-9.4705442297
1.175876398
-9.4807188158
-40.7199414752
-39.953708576
-40.7415448993
-41.3640281795
-40.4680999728
-41.350089097
-40.728265081
-39.9391324039
-40.7106798567

SCALARS vonMises	float	1
LOOKUP_TABLE	default
58.9136739163
44.2240080255
58.5087836996
47.6665567556
31.1929351434
47.8705586675
58.4051357069
45.1683224511
58.456897787
39.605322544
36.1339336292
39.5271884093
37.7068436059
35.0737235122
37.7437804847
39.5055786054
36.2813439102
39.5134215682
41.7934627084
41.8963896981
41.8752781052
42.0412217825
42.0945012582
42.0102088167
41.9300342362
41.8407146116
41.923888263
