# vtk DataFile Version 2.0
Results
ASCII
DATASET UNSTRUCTURED_GRID
POINTS         27           float
0.0	0.0	0.0	
50.0	0.0	0.0	
100.0	0.0	0.0	
0.0	40.0	0.0	
50.0	40.0	0.0	
100.0	40.0	0.0	
0.0	80.0	0.0	
50.0	80.0	0.0	
100.0	80.0	0.0	
0.0	0.0	70.0	
50.0	0.0	70.0	
100.0	0.0	70.0	
0.0	40.0	70.0	
50.0	40.0	70.0	
100.0	40.0	70.0	
0.0	80.0	70.0	
50.0	80.0	70.0	
100.0	80.0	70.0	
0.0	0.0	140.0	
50.0	0.0	140.0	
100.0	0.0	140.0	
0.0	40.0	140.0	
50.0	40.0	140.0	
100.0	40.0	140.0	
0.0	80.0	140.0	
50.0	80.0	140.0	
100.0	80.0	140.0	

CELLS	8	72
 8	0	1	4	3	9	10	13	12	
 8	1	2	5	4	10	11	14	13	
 8	4	5	8	7	13	14	17	16	
 8	3	4	7	6	12	13	16	15	
 8	9	10	13	12	18	19	22	21	
 8	10	11	14	13	19	20	23	22	
 8	13	14	17	16	22	23	26	25	
 8	12	13	16	15	21	22	25	24	

CELL_TYPES	8
 12
 12
 12
 12
 12
 12
 12
 12

POINT_DATA	27
VECTORS	u 	float 
0.0	0.0	0.0
0.0013474068	0.0	0.0
0.0028247755	0.0	0.0
0.0	0.0070481073	0.0
0.0012394737	0.006994266	0.0
0.0023954251	0.0073413642	0.0
0.0	0.0153611172	0.0
0.0010518908	0.0129593807	0.0
0.0018873618	0.0158182289	0.0
0.0203744624	0.0285067151	-0.0314348849
0.001367258	0.0332025764	-0.0094293968
-0.0176811159	0.0289025431	-0.0314668759
0.0204579957	0.0069198452	-0.0180462858
0.0012223846	0.0070360788	0.0033812717
-0.0180002094	0.0072680506	-0.018124976
0.0201925758	-0.0149637216	-0.0313233296
0.0010813396	-0.0188356113	-0.0093073271
-0.0179841599	-0.0146198607	-0.0313803833
-0.1315175568	-0.1126213428	0.0013013853
0.0014006239	-0.1074209416	0.0625943075
0.1343467409	-0.1122858673	0.0012299181
-0.1306241423	0.0067743525	0.0498521448
0.0012670069	0.0069894236	0.1109124719
0.133150843	0.0071282933	0.0498079912
-0.1318503093	0.1263096979	0.001389114
0.0011304484	0.1212589034	0.0627318318
0.1340939005	0.126653131	0.0013294142

VECTORS	v 	float 
0.0	0.0	0.0
0.0021137841	0.0	0.0
0.0042308194	0.0	0.0
0.0	0.0017136733	0.0
0.0021124447	0.0017126531	0.0
0.0042227022	0.0017165586	0.0
0.0	0.0034396603	0.0
0.0021121312	0.0034148543	0.0
0.0042234086	0.0034437888	0.0
-0.0001064742	-2.64977e-05	-0.0079733399
0.0021139182	4.1677e-06	-0.0077333102
0.0043335565	-2.31377e-05	-0.0079736188
-0.0001062601	0.0017124838	-0.0078179743
0.0021128273	0.0017134915	-0.007580249
0.0043323466	0.0017152775	-0.007818577
-0.0001077162	0.0034486937	-0.0079726167
0.0021114427	0.0034256617	-0.0077325027
0.0043308406	0.003451405	-0.0079731355
-0.0013297603	-0.001130152	-0.0151120046
0.0021141613	-0.0011091361	-0.0146047684
0.0055586476	-0.0011276142	-0.0151130518
-0.0013250734	0.0017115293	-0.0147332401
0.0021131259	0.0017132547	-0.0142240748
0.0055509666	0.0017143147	-0.0147332074
-0.0013324669	0.0045545774	-0.0151118634
0.0021121206	0.0045342359	-0.0146034238
0.00555676	0.0045572885	-0.0151126357

VECTORS	a 	float 
0.0	0.0	0.0
0.7753177168	0.0	0.0
1.5502756789	0.0	0.0
0.0	0.6208836852	0.0
0.7741027134	0.6196291558	0.0
1.5485076655	0.6208931655	0.0
0.0	1.2412480117	0.0
0.7756059283	1.2396362183	0.0
1.550973394	1.2412610832	0.0
0.0035640665	0.0040108024	-2.6655679864
0.7745795691	0.0033951565	-2.6661820494
1.545711755	0.0038192401	-2.665629727
0.0032184676	0.6202402511	-2.6654691118
0.7749469628	0.6204306961	-2.6658997552
1.5465543371	0.6200696853	-2.6654227691
0.0036455145	1.2366128943	-2.6656335583
0.7746838124	1.2373438134	-2.6663716213
1.5457980127	1.236467399	-2.665687478
-0.0060367227	-0.0049212749	-5.3273236953
0.7747885705	-0.0058245609	-5.328325209
1.5555857	-0.0050527959	-5.3274594417
-0.0077088072	0.6205200386	-5.3269039407
0.7747235971	0.6203536017	-5.3274635625
1.5571983795	0.6203663569	-5.3267814172
-0.0058548227	1.2459429979	-5.3275076407
0.774916611	1.2465582664	-5.3283667382
1.5556834619	1.2457642821	-5.3276369037

SCALARS	theta	float 1
LOOKUP_TABLE	default
302.6335187782
302.3422779099
302.6174280392
302.5116098048
302.2520380482
302.5088674419
302.6079423282
302.3730085783
302.610283382
294.3594047292
294.0438967006
294.3614903895
294.172803711
293.8526756803
294.1728527136
294.3655704745
294.0410740415
294.3652923729
328.0006173691
327.5743523978
328.0007507805
327.7211276095
327.2947725556
327.7210807373
327.9990760188
327.5744646879
327.9990711546

SCALARS	sig_11	float	1
LOOKUP_TABLE	default
-85.8639038496
-60.7590509397
-84.7982190105
-70.6429237593
-47.7677335095
-70.5521427105
-85.0111195301
-63.6752552467
-85.5647974486
61.3982150275
90.717038809
61.3280874265
86.5487403037
115.9130307667
86.5382045624
60.9040091799
90.4552866491
60.9233738986
-146.8645881324
-109.0867072068
-146.8651230799
-111.8294808024
-73.9702139312
-111.8172345362
-146.7560687247
-109.0441563261
-146.775122538

SCALARS	sig_22	float	1
LOOKUP_TABLE	default
-75.3147702724
-52.6150569441
-73.785596502
-58.7635362826
-39.7304872738
-58.0034737683
-71.9157381262
-55.9150871518
-71.6899669298
47.8006550408
68.6161746329
47.7689539578
73.8164580137
94.7985198728
73.8412518524
47.4984868739
68.7825897971
47.5548055704
-118.1755443708
-90.7737169482
-118.1930935458
-81.2266257607
-53.7915130585
-81.2227038729
-118.0560892006
-90.834601136
-118.096401333

SCALARS	sig_33	float	1
LOOKUP_TABLE	default
-125.9578904323
-75.665991116
-125.1324576015
-95.0509503539
-47.1811813094
-94.9105030326
-124.3035289102
-77.4888683786
-124.5537413131
86.9273269558
151.1098478827
86.8307901921
140.4902537954
204.5918196305
140.4433914523
86.77980359
151.1973721536
86.7402805876
-333.621053126
-251.0150992027
-333.6803382213
-256.6294740258
-173.8043578767
-256.5796745955
-333.5860771347
-250.9913130965
-333.5875044927

SCALARS vonMises	float	1
LOOKUP_TABLE	default
109.3049711713
94.3359815698
110.0411759302
80.0434728726
54.5860916117
80.1423735419
111.2079832239
93.0523497467
111.0347873112
225.8214631592
187.6253314331
226.2197687193
181.3653048274
130.7899468612
181.3907473857
226.5741252761
186.6883224939
226.4590444072
237.7322064661
206.7401226256
237.831083191
218.1438624048
188.4597667531
218.1378358976
238.0061121715
206.5985008967
237.9454830685
