# vtk DataFile Version 2.0
Results
ASCII
DATASET UNSTRUCTURED_GRID
POINTS         27           float
0.0	0.0	0.0	
50.0	0.0	0.0	
100.0	0.0	0.0	
0.0	40.0	0.0	
50.0	40.0	0.0	
100.0	40.0	0.0	
0.0	80.0	0.0	
50.0	80.0	0.0	
100.0	80.0	0.0	
0.0	0.0	70.0	
50.0	0.0	70.0	
100.0	0.0	70.0	
0.0	40.0	70.0	
50.0	40.0	70.0	
100.0	40.0	70.0	
0.0	80.0	70.0	
50.0	80.0	70.0	
100.0	80.0	70.0	
0.0	0.0	140.0	
50.0	0.0	140.0	
100.0	0.0	140.0	
0.0	40.0	140.0	
50.0	40.0	140.0	
100.0	40.0	140.0	
0.0	80.0	140.0	
50.0	80.0	140.0	
100.0	80.0	140.0	

CELLS	8	72
 8	0	1	4	3	9	10	13	12	
 8	1	2	5	4	10	11	14	13	
 8	4	5	8	7	13	14	17	16	
 8	3	4	7	6	12	13	16	15	
 8	9	10	13	12	18	19	22	21	
 8	10	11	14	13	19	20	23	22	
 8	13	14	17	16	22	23	26	25	
 8	12	13	16	15	21	22	25	24	

CELL_TYPES	8
 12
 12
 12
 12
 12
 12
 12
 12

POINT_DATA	27
VECTORS	u 	float 
0.0	0.0	0.0
-0.012806041	0.0	0.0
-0.0251742753	0.0	0.0
0.0	-0.0120845995	0.0
-0.0128183756	-0.0121164454	0.0
-0.0259493023	-0.0119238454	0.0
0.0	-0.0232378019	0.0
-0.012963923	-0.0250126061	0.0
-0.025800944	-0.0230579822	0.0
-0.0322536798	-0.027845395	-0.0100821418
-0.0127616543	-0.0264920956	0.0076269554
0.006624778	-0.0276148318	-0.0100740198
-0.0321832632	-0.0121497263	0.0022223835
-0.0128606058	-0.0120977664	0.0200161377
0.0065385364	-0.0119563566	0.0022024932
-0.0323305674	0.0033294911	-0.0100131437
-0.0129236735	0.002506642	0.0076806837
0.0064488473	0.003523714	-0.0100340716
-0.0928924632	-0.0789192188	0.0551008719
-0.0127719145	-0.079080235	0.0778114932
0.0673988178	-0.0787373435	0.0550751122
-0.093031016	-0.0122359438	0.0706064108
-0.0128371426	-0.0121083719	0.0936237436
0.0673209383	-0.0120360237	0.0706029255
-0.0930888641	0.0545494837	0.0551317971
-0.012921038	0.0547656591	0.0778908945
0.0672618245	0.0547444994	0.0551188123

VECTORS	v 	float 
0.0	0.0	0.0
6.36557e-05	0.0	0.0
0.0001308121	0.0	0.0
0.0	3.599e-05	0.0
7.01945e-05	4.13693e-05	0.0
0.0001373413	3.57012e-05	0.0
0.0	7.53183e-05	0.0
6.18022e-05	8.03045e-05	0.0
0.0001261201	7.49769e-05	0.0
6.347e-07	-3.34191e-05	9.81359e-05
6.75956e-05	-2.48728e-05	7.90599e-05
0.0001335198	-3.2208e-05	9.84915e-05
9.5487e-06	3.84809e-05	8.47651e-05
6.54969e-05	3.76979e-05	6.48228e-05
0.000122546	3.95661e-05	8.45743e-05
2.325e-07	0.0001094347	9.85614e-05
6.69505e-05	0.0001010916	8.05206e-05
0.000132976	0.0001103091	9.88385e-05
0.0002550924	0.000211872	8.67102e-05
6.64186e-05	0.0002224285	1.50654e-05
-0.0001219185	0.0002127129	8.75839e-05
0.0002734477	3.68613e-05	2.58159e-05
6.67532e-05	3.77775e-05	-4.8435e-05
-0.0001404076	3.78741e-05	2.51048e-05
0.0002538236	-0.0001380154	8.79486e-05
6.55728e-05	-0.000147096	1.55404e-05
-0.0001225461	-0.000136787	8.87411e-05

VECTORS	a 	float 
0.0	0.0	0.0
-0.8958198944	0.0	0.0
-1.7900191753	0.0	0.0
0.0	-0.7192577859	0.0
-0.8902440597	-0.713183108	0.0
-1.7818595677	-0.7191529826	0.0
0.0	-1.4357149155	0.0
-0.8971984134	-1.4284485119	0.0
-1.7934850383	-1.4355062489	0.0
0.0002943087	-0.0043494274	3.0764217627
-0.8923755735	0.0013734601	3.0835115893
-1.7855728002	-0.0033213029	3.0767311418
0.0038717497	-0.716128679	3.0791571514
-0.8941298381	-0.7170333181	3.0844101695
-1.7915883279	-0.7152147816	3.0788619434
-0.0001407992	-1.4286623378	3.0768448582
-0.8929740423	-1.4347763914	3.0843539329
-1.7861090987	-1.4278631805	3.077069656
0.0049877215	0.0027965999	6.1573061107
-0.8933367804	0.01182219	6.1771635352
-1.7915103677	0.0035079245	6.157886294
0.0171815782	-0.7175062988	6.1690726581
-0.8930612742	-0.7166243834	6.186032158
-1.8035088081	-0.7166901597	6.1684934918
0.0040823385	-1.4376489232	6.1581996101
-0.8939821761	-1.4452656319	6.1774277407
-1.7920259134	-1.436729888	6.1587232737

SCALARS	theta	float 1
LOOKUP_TABLE	default
297.1658634543
297.2119900712
297.168414397
297.18272144
297.2236987712
297.1833016992
297.170313641
297.2072101263
297.1702564267
303.9798233531
304.0574034775
303.9793128459
304.018082451
304.0965966949
304.017989991
303.9789571267
304.0581840995
303.9789504787
315.8206958446
315.9456843007
315.8206833755
315.8848112712
316.0098921956
315.8847627077
315.8210861717
315.945680154
315.8210158994

SCALARS	sig_11	float	1
LOOKUP_TABLE	default
11.1724694982
25.1749823458
12.3492279303
21.594206667
33.9778637681
21.0546724612
11.6688395212
23.5127728637
11.7357661784
-2.1696737759
4.2136536851
-2.2508424024
3.1621868121
9.7250785768
3.1942620475
-2.5083967743
4.0379798172
-2.5238648335
-31.5127551571
-30.1409963529
-31.489948068
-30.1254900041
-28.7118025782
-30.1329961159
-31.4508455146
-30.1193126717
-31.4430969302

SCALARS	sig_22	float	1
LOOKUP_TABLE	default
5.3984267579
18.4412853723
6.3538245566
16.6966586798
27.3675519626
16.7131396513
7.6512051859
16.3666544542
7.725831998
-2.3363933608
2.0934100873
-2.4014134038
3.2484216947
7.9141422497
3.2529150492
-2.538133792
2.2088298652
-2.5380293846
-23.7116099658
-22.663636708
-23.6967638058
-22.2437904122
-21.1802439243
-22.2371333926
-23.6368546097
-22.7093290706
-23.6397180645

SCALARS	sig_33	float	1
LOOKUP_TABLE	default
20.5857936674
54.7307963965
21.2053983671
45.3865142905
78.4028513891
45.1840402457
21.5338805545
53.7626192471
21.5288797879
-1.85193976
17.617569667
-1.9177394468
12.6930105743
32.4008216741
12.6958234688
-1.9650602323
17.6774245246
-1.9813767595
-85.990327721
-78.9140685308
-86.0249043441
-80.8904254942
-73.6111976797
-80.8693524811
-86.0005655891
-78.8906561479
-85.9755698014

SCALARS vonMises	float	1
LOOKUP_TABLE	default
71.0227639807
53.5982448077
70.4312159712
59.1748695387
42.1682363306
59.4714995877
70.3245402754
55.0825807632
70.4154952436
63.640401346
59.4077782238
63.5832215684
61.1581086769
58.1510947506
61.1826820602
63.5680157882
59.4553113553
63.5785428781
79.845428647
77.7550742651
79.9675031965
78.7115593692
76.6260897066
78.6689392792
80.0538847637
77.6662532425
80.0418090237
