# vtk DataFile Version 2.0
Results
ASCII
DATASET UNSTRUCTURED_GRID
POINTS         27           float
0.0	0.0	0.0	
50.0	0.0	0.0	
100.0	0.0	0.0	
0.0	40.0	0.0	
50.0	40.0	0.0	
100.0	40.0	0.0	
0.0	80.0	0.0	
50.0	80.0	0.0	
100.0	80.0	0.0	
0.0	0.0	70.0	
50.0	0.0	70.0	
100.0	0.0	70.0	
0.0	40.0	70.0	
50.0	40.0	70.0	
100.0	40.0	70.0	
0.0	80.0	70.0	
50.0	80.0	70.0	
100.0	80.0	70.0	
0.0	0.0	140.0	
50.0	0.0	140.0	
100.0	0.0	140.0	
0.0	40.0	140.0	
50.0	40.0	140.0	
100.0	40.0	140.0	
0.0	80.0	140.0	
50.0	80.0	140.0	
100.0	80.0	140.0	

CELLS	8	72
 8	0	1	4	3	9	10	13	12	
 8	1	2	5	4	10	11	14	13	
 8	4	5	8	7	13	14	17	16	
 8	3	4	7	6	12	13	16	15	
 8	9	10	13	12	18	19	22	21	
 8	10	11	14	13	19	20	23	22	
 8	13	14	17	16	22	23	26	25	
 8	12	13	16	15	21	22	25	24	

CELL_TYPES	8
 12
 12
 12
 12
 12
 12
 12
 12

POINT_DATA	27
VECTORS	u 	float 
0.0	0.0	0.0
-0.0151323496	0.0	0.0
-0.0298165605	0.0	0.0
0.0	-0.0129398881	0.0
-0.0151565527	-0.0129731338	0.0
-0.0306290602	-0.0127485596	0.0
0.0	-0.0248139726	0.0
-0.0153205836	-0.026836252	0.0
-0.0305384296	-0.0245861622	0.0
-0.0279139595	-0.0222262463	-0.0179269192
-0.0150858097	-0.0204899031	0.0025372568
-0.0023679968	-0.0219539918	-0.017921852
-0.0278193526	-0.0130164735	-0.0040216993
-0.0151998484	-0.0129526617	0.0164893747
-0.0025038961	-0.0127874111	-0.0040487628
-0.0280107203	-0.0040535903	-0.0178448177
-0.0152775198	-0.0051741288	0.002603484
-0.0025739084	-0.0038244751	-0.0178712234
-0.1107555787	-0.0939296364	0.0465790135
-0.0150934235	-0.0938020224	0.0786491619
0.0806221926	-0.0937137714	0.0465461769
-0.1107626113	-0.0131186622	0.0694738474
-0.0151723644	-0.0129687428	0.1018501673
0.0803820112	-0.0128821154	0.0694659508
-0.1109862084	0.06780885	0.0466199718
-0.0152702979	0.0677520369	0.0787444719
0.0804588041	0.0680396206	0.0466011955

VECTORS	v 	float 
0.0	0.0	0.0
8.9862e-06	0.0	0.0
2.11104e-05	0.0	0.0
0.0	-2.80495e-05	0.0
1.40375e-05	-2.34946e-05	0.0
2.53884e-05	-2.86974e-05	0.0
0.0	-5.48789e-05	0.0
7.8832e-06	-4.77557e-05	0.0
1.84821e-05	-5.59956e-05	0.0
-0.0001350683	-0.000177813	0.000118487
1.18842e-05	-0.0001813679	8.39501e-05
0.0001579615	-0.0001774353	0.0001188662
-0.0001305318	-2.57402e-05	0.0001011624
1.04867e-05	-2.65991e-05	6.68428e-05
0.0001524364	-2.53809e-05	0.0001012089
-0.0001350922	0.0001258952	0.0001188087
1.1793e-05	0.0001284793	8.47222e-05
0.0001579527	0.0001261469	0.0001190956
0.0003135649	0.0002625105	0.0001930934
1.08838e-05	0.0002565178	4.6921e-06
-0.0002915506	0.0002626804	0.0001939214
0.0003201123	-2.68563e-05	3.75674e-05
1.13282e-05	-2.63815e-05	-0.000152438
-0.0002978153	-2.65928e-05	3.71303e-05
0.0003131009	-0.0003162371	0.0001939897
1.06432e-05	-0.0003092956	4.753e-06
-0.0002916569	-0.000315822	0.0001947214

VECTORS	a 	float 
0.0	0.0	0.0
-0.8971969633	0.0	0.0
-1.7937014258	0.0	0.0
0.0	-0.7179320043	0.0
-0.893458784	-0.7136140294	0.0
-1.7875057007	-0.7178507616	0.0
0.0	-1.4342871604	0.0
-0.8980491257	-1.4283746229	0.0
-1.7957577876	-1.434128657	0.0
-0.0032657121	-0.0025636933	3.079411806
-0.8948933539	0.0010158794	3.0829393395
-1.7867696098	-0.0019403675	3.0796260181
-0.0012866814	-0.7156568392	3.0802782082
-0.8960304166	-0.7163044196	3.0823202588
-1.7905085247	-0.7150980495	3.0800557045
-0.0035578548	-1.4291758238	3.0796627748
-0.895255841	-1.4332620175	3.0834304437
-1.7870918301	-1.4286802509	3.0798279586
0.0039636315	0.0024374038	6.1556623325
-0.8955173708	0.0095246754	6.1712824544
-1.7949432745	0.0028820589	6.1560357822
0.0122798076	-0.7165450228	6.1654446085
-0.8953273477	-0.7159787662	6.1788643602
-1.8030215758	-0.7160454829	6.1650572472
0.0034295079	-1.4354456445	6.156196292
-0.8959146949	-1.4415774866	6.1714236878
-1.7952681966	-1.4348922523	6.1565350908

SCALARS	theta	float 1
LOOKUP_TABLE	default
297.0982770163
297.1146270455
297.0984972774
297.0945696849
297.1065957611
297.0965242662
297.1029780102
297.1103439052
297.1021743974
302.3067517337
302.4328065902
302.3061856289
302.3831458398
302.5096393772
302.3825973393
302.3061895912
302.4339827691
302.3062902315
318.996538826
319.2605613126
318.9967360973
319.1615739
319.4259415519
319.161750513
318.9969229744
319.2604200309
318.9967726974

SCALARS	sig_11	float	1
LOOKUP_TABLE	default
-1.893854804
14.6014931024
-0.6098847177
10.0462149525
24.7446348027
9.5047221699
-1.3489810321
12.6784824463
-1.3293605212
9.3744320363
18.0557621171
9.2903122312
16.7537554715
25.6277157376
16.7867006514
8.9855154251
17.8517933931
8.9725699506
-50.1701701155
-46.4980980473
-50.149321871
-46.3075076267
-42.5846869549
-46.3150917364
-50.0983407541
-46.471086986
-50.0924937668

SCALARS	sig_22	float	1
LOOKUP_TABLE	default
-5.8719850876
9.4874233311
-4.7583617618
7.0765108404
19.7272619083
7.1521842998
-3.3055126633
7.1048554918
-3.1970008083
6.8052058268
12.8819343082
6.7411890924
14.5462811632
20.883760923
14.5552571489
6.5730774001
13.0114279131
6.5798945279
-38.6296933972
-35.9273849584
-38.6182770883
-34.4355639095
-31.7129281532
-34.4299955676
-38.5440723166
-35.9781486678
-38.5509060838

SCALARS	sig_33	float	1
LOOKUP_TABLE	default
2.9579934288
42.7594118983
3.6645305376
31.156328469
69.6362246596
30.9508511001
4.0375176411
41.6399834539
4.0178483434
15.5904435086
42.6785334837
15.5211961135
36.4906226099
63.8245192695
36.4919956524
15.4616900596
42.7445521047
15.4428927312
-131.0633512391
-114.189596801
-131.1066371491
-116.6691751641
-99.5636866695
-116.6460515253
-131.0717206596
-114.1607659844
-131.0472799275

SCALARS vonMises	float	1
LOOKUP_TABLE	default
53.8442636717
41.7824444631
53.2610784385
48.1127412418
40.7421269477
48.4137592976
53.3108778356
43.5536470549
53.4456731699
81.7361671672
78.6109071853
81.8865553434
78.7675576927
74.1161488571
78.7447856284
81.9669023789
78.3779746194
81.9734261295
113.2514099908
107.3130246165
113.3840429336
109.6852918307
103.9822353173
109.6450388319
113.4866446707
107.2077200679
113.4684300574
