# vtk DataFile Version 2.0
Results
ASCII
DATASET UNSTRUCTURED_GRID
POINTS         27           float
0.0	0.0	0.0	
50.0	0.0	0.0	
100.0	0.0	0.0	
0.0	40.0	0.0	
50.0	40.0	0.0	
100.0	40.0	0.0	
0.0	80.0	0.0	
50.0	80.0	0.0	
100.0	80.0	0.0	
0.0	0.0	70.0	
50.0	0.0	70.0	
100.0	0.0	70.0	
0.0	40.0	70.0	
50.0	40.0	70.0	
100.0	40.0	70.0	
0.0	80.0	70.0	
50.0	80.0	70.0	
100.0	80.0	70.0	
0.0	0.0	140.0	
50.0	0.0	140.0	
100.0	0.0	140.0	
0.0	40.0	140.0	
50.0	40.0	140.0	
100.0	40.0	140.0	
0.0	80.0	140.0	
50.0	80.0	140.0	
100.0	80.0	140.0	

CELLS	8	72
 8	0	1	4	3	9	10	13	12	
 8	1	2	5	4	10	11	14	13	
 8	4	5	8	7	13	14	17	16	
 8	3	4	7	6	12	13	16	15	
 8	9	10	13	12	18	19	22	21	
 8	10	11	14	13	19	20	23	22	
 8	13	14	17	16	22	23	26	25	
 8	12	13	16	15	21	22	25	24	

CELL_TYPES	8
 12
 12
 12
 12
 12
 12
 12
 12

POINT_DATA	27
VECTORS	u 	float 
0.0	0.0	0.0
0.0025188552	0.0	0.0
0.0053078749	0.0	0.0
0.0	0.0004050373	0.0
0.0025161133	0.0003875045	0.0
0.0048385299	0.0004963938	0.0
0.0	0.0013481821	0.0
0.0024300391	0.0003226148	0.0
0.0049456433	0.0014451062	0.0
-0.0224646015	-0.0202313309	0.0105297023
0.0025466162	-0.0194933016	0.0206355071
0.027493759	-0.0201004815	0.0105359795
-0.0224508788	0.0003697392	0.0176803345
0.0024893115	0.0003981348	0.0278523436
0.0274772666	0.0004795087	0.0176701706
-0.0225056822	0.0208452495	0.0105672414
0.0024546629	0.0204100531	0.0206631977
0.027392193	0.0209559072	0.0105557726
-0.0514333264	-0.0438172188	0.0659606479
0.0025391466	-0.0439793088	0.076336237
0.0565418757	-0.0437142433	0.0659471072
-0.0516070513	0.0003225156	0.0726326286
0.0025027577	0.0003951132	0.0832005849
0.0565904205	0.000436047	0.0726320704
-0.0515449056	0.0445211438	0.065974289
0.0024545815	0.044713278	0.0763784815
0.0564641295	0.0446321258	0.0659683587

VECTORS	v 	float 
0.0	0.0	0.0
7.92748e-05	0.0	0.0
0.0001613927	0.0	0.0
0.0	5.22553e-05	0.0
8.48517e-05	5.87436e-05	0.0
0.000167216	5.2596e-05	0.0
0.0	0.000109077	0.0
7.74544e-05	0.0001140124	0.0
0.0001562984	0.0001098397	0.0
8.04143e-05	4.61168e-05	3.87968e-05
8.28949e-05	5.47861e-05	4.11057e-05
8.45128e-05	4.7806e-05	3.90366e-05
8.69631e-05	5.54097e-05	3.84316e-05
8.08544e-05	5.46235e-05	3.91486e-05
7.56728e-05	5.68912e-05	3.79658e-05
7.98321e-05	6.35564e-05	3.91374e-05
8.1852e-05	5.55816e-05	4.27576e-05
8.34467e-05	6.48028e-05	3.93808e-05
0.0001623307	0.0001229556	1.75425e-05
8.20155e-05	0.0001316914	2.14169e-05
2.0111e-06	0.0001242803	1.81664e-05
0.0001781506	5.3596e-05	1.75477e-05
8.20623e-05	5.47751e-05	1.82888e-05
-1.44547e-05	5.51009e-05	1.67255e-05
0.0001605702	-1.55766e-05	1.88241e-05
8.0761e-05	-2.24566e-05	2.20169e-05
1.0137e-06	-1.38745e-05	1.94535e-05

VECTORS	a 	float 
0.0	0.0	0.0
-0.8912456792	0.0	0.0
-1.7775041458	0.0	0.0
0.0	-0.7233324879	0.0
-0.8792072831	-0.7108985536	0.0
-1.7626241308	-0.723033247	0.0
0.0	-1.4391675979	0.0
-0.8945045965	-1.4275018407	0.0
-1.7861701105	-1.4385742004	0.0
0.0126334293	-0.0097011907	3.0638716583
-0.8837393605	0.0046021409	3.0863829581
-1.7816391656	-0.0071046586	3.0645047042
0.0218571248	-0.717116223	3.0749530877
-0.8877077029	-0.7189051075	3.0943314473
-1.7957231018	-0.7148384749	3.0743359424
0.0116507207	-1.4265337569	3.0648854003
-0.8852720466	-1.4405867511	3.0885648029
-1.7830461758	-1.4245746448	3.0653206197
0.0075049053	0.0031833114	6.1575994164
-0.8858447131	0.0200506772	6.1986867058
-1.7786796837	0.0049931472	6.1588676881
0.0337908759	-0.7202948476	6.1803452389
-0.8853305666	-0.7182253729	6.2161461992
-1.8051044265	-0.7181925267	6.1790596699
0.0051006201	-1.4433062203	6.1597820041
-0.8875058384	-1.4570927737	6.1994426881
-1.7799863112	-1.4409181447	6.1609353627

SCALARS	theta	float 1
LOOKUP_TABLE	default
300.1566597331
300.1993030338
300.1592858891
300.1773075438
300.2158356999
300.1771720717
300.1597288275
300.1953465847
300.1596007038
305.2069176652
305.2251072479
305.2066720822
305.2151083423
305.2340920796
305.2152425827
305.20603274
305.2253178393
305.2060293309
310.6472029678
310.6488653079
310.6471406068
310.6456744413
310.6473780736
310.6456184762
310.6473782162
310.6488718459
310.6474176348

SCALARS	sig_11	float	1
LOOKUP_TABLE	default
12.8157591545
20.6928917686
13.5103868468
18.7824903451
25.719975972
18.4490398761
13.1044897607
19.752393548
13.1630385025
-6.5179891321
-3.2733044291
-6.5683200743
-3.9728419391
-0.6199769323
-3.953505733
-6.7121321778
-3.3722930648
-6.7225020049
-12.146134687
-12.0030692654
-12.1314882227
-12.2949704524
-12.1301412504
-12.2999438013
-12.1109011824
-11.991619665
-12.1058321427

SCALARS	sig_22	float	1
LOOKUP_TABLE	default
8.3593194739
15.6926605361
8.9009915888
14.8156963891
20.7900996124
14.8090585441
9.6566311385
14.5086790183
9.6945299237
-5.531499404
-3.3169609129
-5.5728425244
-2.9091439293
-0.5553551829
-2.9079048886
-5.6462197281
-3.2480122718
-5.6480994883
-8.7067396873
-8.5919393149
-8.6964218378
-8.9663988139
-8.8452801976
-8.9620999498
-8.66325632
-8.6184835362
-8.6639621155

SCALARS	sig_33	float	1
LOOKUP_TABLE	default
20.777133437
40.144104655
21.1305618527
35.0892334117
53.8305097684
34.9658693464
21.3187331302
39.5999567562
21.3239814986
-8.8646472466
0.3826163532
-8.905733559
-2.3617656081
7.0335537237
-2.35991241
-8.9296430387
0.4196121928
-8.9386566042
-35.2952595205
-34.8399108723
-35.3144244743
-36.1079592206
-35.5376895908
-36.0957459765
-35.3028280013
-34.8269041746
-35.2870835632

SCALARS vonMises	float	1
LOOKUP_TABLE	default
53.1635624675
39.9045028733
52.8003959965
42.9490603991
27.9855335731
43.1346572011
52.7068625241
40.7488139646
52.7513116979
35.1383595389
32.0609475898
35.06616666
33.4596522233
31.0828930457
33.4947570296
35.0461923281
32.1993490524
35.0524049704
36.5296771035
36.7460180237
36.6026171518
36.8344193615
37.0049720439
36.8066653204
36.6507927831
36.6970275907
36.6455512577
