# vtk DataFile Version 2.0
Results
ASCII
DATASET UNSTRUCTURED_GRID
POINTS         27           float
0.0	0.0	0.0	
50.0	0.0	0.0	
100.0	0.0	0.0	
0.0	40.0	0.0	
50.0	40.0	0.0	
100.0	40.0	0.0	
0.0	80.0	0.0	
50.0	80.0	0.0	
100.0	80.0	0.0	
0.0	0.0	70.0	
50.0	0.0	70.0	
100.0	0.0	70.0	
0.0	40.0	70.0	
50.0	40.0	70.0	
100.0	40.0	70.0	
0.0	80.0	70.0	
50.0	80.0	70.0	
100.0	80.0	70.0	
0.0	0.0	140.0	
50.0	0.0	140.0	
100.0	0.0	140.0	
0.0	40.0	140.0	
50.0	40.0	140.0	
100.0	40.0	140.0	
0.0	80.0	140.0	
50.0	80.0	140.0	
100.0	80.0	140.0	

CELLS	8	72
 8	0	1	4	3	9	10	13	12	
 8	1	2	5	4	10	11	14	13	
 8	4	5	8	7	13	14	17	16	
 8	3	4	7	6	12	13	16	15	
 8	9	10	13	12	18	19	22	21	
 8	10	11	14	13	19	20	23	22	
 8	13	14	17	16	22	23	26	25	
 8	12	13	16	15	21	22	25	24	

CELL_TYPES	8
 12
 12
 12
 12
 12
 12
 12
 12

POINT_DATA	27
VECTORS	u 	float 
0.0	0.0	0.0
-0.0131520463	0.0	0.0
-0.0258631562	0.0	0.0
0.0	-0.0123132714	0.0
-0.0131651595	-0.0123454778	0.0
-0.0266449066	-0.0121500239	0.0
0.0	-0.0236827756	0.0
-0.0133124232	-0.0254808761	0.0
-0.0264983561	-0.0234994181	0.0
-0.0321750973	-0.0276676725	-0.0107896234
-0.0131073434	-0.0262884322	0.0071722633
0.0058539313	-0.02743361	-0.0107816116
-0.0321016002	-0.0123794481	0.001672992
-0.0132076312	-0.0123265567	0.0197181692
0.0057632708	-0.0121831171	0.0016526234
-0.0322534809	0.0026894973	-0.0107195045
-0.0132718354	0.001848259	0.0072270066
0.005675464	0.0028866385	-0.010740823
-0.0944249938	-0.0802077415	0.0545016441
-0.0131175187	-0.080358366	0.0778768312
0.0682406108	-0.0800230554	0.0544753656
-0.0945548594	-0.0124670347	0.0705169566
-0.0131838408	-0.0123375664	0.0942006986
0.068151167	-0.0122640627	0.0705132245
-0.0946243141	0.055377172	0.0545333488
-0.013268941	0.0555840645	0.0779575808
0.0681014661	0.0555751617	0.0545199839

VECTORS	v 	float 
0.0	0.0	0.0
6.05647e-05	0.0	0.0
0.0001246959	0.0	0.0
0.0	3.25175e-05	0.0
6.7247e-05	3.79636e-05	0.0
0.0001313932	3.22225e-05	0.0
0.0	6.83942e-05	0.0
5.87121e-05	7.34753e-05	0.0
0.0001199898	6.80341e-05	0.0
-7.7598e-06	-4.21277e-05	9.91522e-05
6.45838e-05	-3.35872e-05	8.00005e-05
0.0001358775	-4.0924e-05	9.95088e-05
1.2817e-06	3.5044e-05	8.59259e-05
6.24563e-05	3.42426e-05	6.59742e-05
0.0001247452	3.61217e-05	8.57419e-05
-8.1517e-06	0.0001112639	9.95771e-05
6.39452e-05	0.0001028998	8.14632e-05
0.0001353393	0.0001121312	9.98526e-05
0.0002593697	0.000215378	9.12067e-05
6.33773e-05	0.0002260255	1.4832e-05
-0.0001322728	0.0002161997	9.20796e-05
0.000278056	3.34157e-05	2.6144e-05
6.37334e-05	3.43314e-05	-5.27636e-05
-0.0001510625	3.44096e-05	2.54405e-05
0.0002581168	-0.0001484101	9.2444e-05
6.25494e-05	-0.000157587	1.5308e-05
-0.0001328813	-0.0001472006	9.32349e-05

VECTORS	a 	float 
0.0	0.0	0.0
-0.8959412846	0.0	0.0
-1.790348149	0.0	0.0
0.0	-0.7191324149	0.0
-0.8905420013	-0.7132287875	0.0
-1.7823826712	-0.7190304473	0.0
0.0	-1.4355798328	0.0
-0.8972705567	-1.4284513347	0.0
-1.7936815843	-1.4353770284	0.0
-3.03322e-05	-0.0041857341	3.0767006593
-0.8926067275	0.0013349749	3.0834561936
-1.785684553	-0.0031959958	3.0770008965
0.0034000894	-0.716087137	3.0792620815
-0.8943020511	-0.7169666439	3.0842163762
-1.7914869627	-0.7152068581	3.0789743372
-0.0004518564	-1.4287119252	3.0771075455
-0.8931827224	-1.4346330331	3.084265599
-1.786200369	-1.427941488	3.0773265239
0.0048958026	0.0027674048	6.1571688945
-0.8935357763	0.0116020755	6.1766078681
-1.7918254172	0.0034534663	6.1577297162
0.0167193669	-0.7174180826	6.1687352017
-0.893268594	-0.7165663471	6.185344072
-1.8034501891	-0.7166319116	6.1681743675
0.0040254982	-1.4374507695	6.1580285973
-0.8941577347	-1.4449199825	6.1768605249
-1.792322953	-1.4365662906	6.1585349115

SCALARS	theta	float 1
LOOKUP_TABLE	default
297.1181189771
297.1628135278
297.1205573611
297.1338486779
297.1734413382
297.1345065185
297.1225809224
297.1580682714
297.1225040768
303.8753112688
303.9569007782
303.874791419
303.9159887356
303.9984902147
303.9158698468
303.8744662496
303.9577098256
303.8744614781
316.0599196552
316.1950323069
316.0599191903
316.1301712289
316.2653858101
316.1301332306
316.0603131407
316.1950211745
316.0602382691

SCALARS	sig_11	float	1
LOOKUP_TABLE	default
10.4781791627
24.6961694316
11.66780605
21.0441453013
33.6235785054
20.5011134081
10.980554848
23.0098617251
11.0453475777
-1.5050373965
5.0315460855
-1.5868239693
3.9703900206
10.6883048391
4.0027276108
-1.8484441925
4.8533181057
-1.863865535
-32.7467586827
-31.2567349047
-32.723915674
-31.213953893
-29.6812197374
-31.2215052052
-32.6839285636
-31.2346310799
-32.6762331238

SCALARS	sig_22	float	1
LOOKUP_TABLE	default
4.7764103098
18.0206390266
5.7459046322
16.2314826904
27.0714478313
16.2509953314
7.0593916432
15.917103337
7.1360984419
-1.8152266286
2.7251917666
-1.8805729452
3.9231979013
8.7022586134
3.9279601123
-2.0198161161
2.8419958713
-2.019364192
-24.6942556999
-23.5589279497
-24.6795042071
-23.0620921206
-21.9107575466
-23.0554450248
-24.6184792785
-23.605167263
-24.6215727084

SCALARS	sig_33	float	1
LOOKUP_TABLE	default
19.6783376614
54.3288562903
20.3064101255
44.8095317311
78.3138393219
44.6055545395
20.6394863073
53.346447251
20.633502334
-0.8469674918
19.1563292497
-0.9132948627
14.143375897
34.3868021861
14.1461616005
-0.9616157214
19.2168159022
-0.9781550827
-89.0509440552
-81.3866267196
-89.0861794343
-83.3859186863
-75.5158041418
-83.3646069513
-89.0610803243
-81.3628081892
-89.0359925272

SCALARS vonMises	float	1
LOOKUP_TABLE	default
70.3728767787
53.1544490804
69.7772679874
58.8198724816
42.2752814954
59.1182353608
69.6753516209
54.6612267142
69.768893882
64.8184993543
60.6657218833
64.7684904026
62.3509647039
59.3270329952
62.3727762029
64.7558567454
60.6968990057
64.766490513
82.1934095755
79.8815719304
82.3167371473
80.9161919914
78.6203165973
80.8734946116
82.4044728474
79.7913403034
82.3919922005
