# vtk DataFile Version 2.0
Results
ASCII
DATASET UNSTRUCTURED_GRID
POINTS         27           float
0.0	0.0	0.0	
50.0	0.0	0.0	
100.0	0.0	0.0	
0.0	40.0	0.0	
50.0	40.0	0.0	
100.0	40.0	0.0	
0.0	80.0	0.0	
50.0	80.0	0.0	
100.0	80.0	0.0	
0.0	0.0	70.0	
50.0	0.0	70.0	
100.0	0.0	70.0	
0.0	40.0	70.0	
50.0	40.0	70.0	
100.0	40.0	70.0	
0.0	80.0	70.0	
50.0	80.0	70.0	
100.0	80.0	70.0	
0.0	0.0	140.0	
50.0	0.0	140.0	
100.0	0.0	140.0	
0.0	40.0	140.0	
50.0	40.0	140.0	
100.0	40.0	140.0	
0.0	80.0	140.0	
50.0	80.0	140.0	
100.0	80.0	140.0	

CELLS	8	72
 8	0	1	4	3	9	10	13	12	
 8	1	2	5	4	10	11	14	13	
 8	4	5	8	7	13	14	17	16	
 8	3	4	7	6	12	13	16	15	
 8	9	10	13	12	18	19	22	21	
 8	10	11	14	13	19	20	23	22	
 8	13	14	17	16	22	23	26	25	
 8	12	13	16	15	21	22	25	24	

CELL_TYPES	8
 12
 12
 12
 12
 12
 12
 12
 12

POINT_DATA	27
VECTORS	u 	float 
0.0	0.0	0.0
-0.0067121356	0.0	0.0
-0.0130502484	0.0	0.0
0.0	-0.0073849078	0.0
-0.0067189629	-0.0074117655	0.0
-0.0137060553	-0.0072559562	0.0
0.0	-0.0140111428	0.0
-0.0068381931	-0.0154600546	0.0
-0.013560038	-0.0138720303	0.0
-0.029863416	-0.0265749324	-0.0006776974
-0.0066745833	-0.0255170982	0.013608831
0.0164250186	-0.0263897198	-0.00066963
-0.0298274891	-0.0074368734	0.0093720863
-0.0067549456	-0.0073958704	0.0237441387
0.0163835654	-0.0072816067	0.0093572383
-0.0299228761	0.0115245103	-0.000623359
-0.0068046941	0.0108957918	0.0136500817
0.0162824333	0.011680839	-0.0006397601
-0.073415282	-0.0624836174	0.0611926635
-0.0066841703	-0.0626846719	0.0770653009
0.0600890775	-0.0623376145	0.0611728718
-0.0736129872	-0.0075050204	0.0716359884
-0.0067360964	-0.0074023753	0.0877732379
0.0601100372	-0.0073442756	0.0716345044
-0.073573545	0.0475567412	0.0612145462
-0.0068040085	0.0478005218	0.0771273738
0.0599791133	0.0477136669	0.0612054082

VECTORS	v 	float 
0.0	0.0	0.0
7.03836e-05	0.0	0.0
0.0001364219	0.0	0.0
0.0	6.63788e-05	0.0
6.3151e-05	5.89265e-05	0.0
0.0001298601	6.57229e-05	0.0
0.0	0.0001255695	0.0
7.27445e-05	0.0001235271	0.0
0.0001434037	0.0001245578	0.0
3.8266e-05	4.6302e-05	0.0001132291
6.5668e-05	3.3923e-05	5.90553e-05
9.4319e-05	4.40002e-05	0.0001128659
3.19633e-05	6.28039e-05	7.89088e-05
6.83467e-05	6.3682e-05	2.62225e-05
0.0001035288	6.08155e-05	7.93786e-05
3.90982e-05	8.11349e-05	0.000112436
6.71224e-05	9.16999e-05	5.74649e-05
9.57469e-05	7.93714e-05	0.0001122495
0.0001931824	0.000166828	5.15331e-05
6.68834e-05	0.0001577708	-3.13174e-05
-5.9902e-05	0.0001650297	5.08809e-05
0.0001769061	6.50527e-05	-3.4174e-06
6.68465e-05	6.33893e-05	-8.40433e-05
-4.26662e-05	6.30157e-05	-2.6087e-06
0.0001954375	-3.7281e-05	5.00469e-05
6.85037e-05	-3.03393e-05	-3.20486e-05
-5.85582e-05	-3.94971e-05	4.94281e-05

VECTORS	a 	float 
0.0	0.0	0.0
0.8941421083	0.0	0.0
1.7854195673	0.0	0.0
0.0	0.7210032614	0.0
0.8861477452	0.7125679894	0.0
1.7747161093	0.720844423	0.0
0.0	1.4374938079	0.0
0.8962370522	1.4285302374	0.0
1.7908258167	1.4371774092	0.0
-0.0046011929	0.0067960489	-3.0718265489
0.8891794815	-0.0021080328	-3.0844119386
1.7838609876	0.0051873497	-3.0722651554
-0.0104686976	0.7167295628	-3.0775308876
0.8917605568	0.7179574923	-3.0877714503
1.7930733471	0.7153061668	-3.0771216649
-0.0039549149	1.4278735209	-3.0724767419
0.8901232404	1.4369389397	-3.0857446147
1.7847160977	1.4266365419	-3.0727846742
-0.0063163939	-0.0030829995	-6.1581092224
0.8905667362	-0.0150937407	-6.1853799764
1.787167911	-0.0042175993	-6.1589632984
-0.0240341015	0.7187779859	-6.1738265381
0.8902095117	0.7174519781	-6.1972339881
1.8048185806	0.7174702234	-6.1729794478
-0.0048453727	1.4403673045	-6.1594855571
0.8916058592	1.4503334854	-6.1858235026
1.7879970236	1.4388904383	-6.1602567661

SCALARS	theta	float 1
LOOKUP_TABLE	default
298.2562915863
298.3083337548
298.2594087266
298.2798333198
298.3267340839
298.27984224
298.2603344633
298.3035337085
298.2602743658
304.8537874709
304.8924217635
304.8534095832
304.8713984781
304.9110181716
304.8714991477
304.8527987823
304.8928770778
304.8527917448
313.1518833583
313.187854266
313.1517981937
313.1669195982
313.2029436158
313.1668246148
313.152179531
313.1878938807
313.1521692633

SCALARS	sig_11	float	1
LOOKUP_TABLE	default
15.1158225292
26.2975949542
16.0893060426
23.5413183093
33.3991656369
23.0793354727
15.5208900658
24.9629446233
15.5957641011
-6.7532686843
-2.0009482172
-6.8225017786
-2.9305201892
1.9719856833
-2.9034669701
-7.0273179518
-2.1419438956
-7.0414975685
-19.8431418488
-19.3644672613
-19.8229289607
-19.6170469683
-19.1063293919
-19.6236420257
-19.7934793289
-19.3478329153
-19.7863013983

SCALARS	sig_22	float	1
LOOKUP_TABLE	default
9.3580457308
19.7681446639
10.1248761228
18.4841120583
26.9739531191
18.4799587823
11.1863763906
18.0930204318
11.2409807762
-5.8643847356
-2.6019507338
-5.9208914201
-1.8952224881
1.5617870526
-1.8929428414
-6.0269592634
-2.5065520476
-6.0290169026
-14.5279511636
-14.1545509367
-14.5139967661
-14.3784483827
-13.9945576051
-14.3724833574
-14.4671896321
-14.1920275614
-14.4683452454

SCALARS	sig_33	float	1
LOOKUP_TABLE	default
25.1914332319
52.5987484651
25.6919945962
45.3400286166
71.8515895421
45.1682502632
25.956616725
51.8242330948
25.9600215494
-8.8904005898
5.0180483951
-8.9465233717
1.1283331766
15.2398454097
1.1309442945
-8.9820528427
5.0683505284
-8.9951169823
-56.2454639326
-53.9626306376
-56.2724654001
-55.66515463
-53.2189208267
-55.6478830732
-56.2555877697
-53.9441605835
-56.233700071

SCALARS vonMises	float	1
LOOKUP_TABLE	default
69.2621762467
52.0259341257
68.7593702679
56.4108997079
37.67877497
56.6650095925
68.6384388218
53.2170954616
68.7047094194
50.0072038241
45.8024765047
49.9193151222
47.68864689
44.7234607541
47.7290450799
49.8947968533
45.9518955389
49.9036885315
55.8169475496
55.4404197302
55.9186109426
55.7853967482
55.3548134752
55.7476862992
55.987552319
55.3699587742
55.979293236
