# vtk DataFile Version 2.0
Results
ASCII
DATASET UNSTRUCTURED_GRID
POINTS         27           float
0.0	0.0	0.0	
50.0	0.0	0.0	
100.0	0.0	0.0	
0.0	40.0	0.0	
50.0	40.0	0.0	
100.0	40.0	0.0	
0.0	80.0	0.0	
50.0	80.0	0.0	
100.0	80.0	0.0	
0.0	0.0	70.0	
50.0	0.0	70.0	
100.0	0.0	70.0	
0.0	40.0	70.0	
50.0	40.0	70.0	
100.0	40.0	70.0	
0.0	80.0	70.0	
50.0	80.0	70.0	
100.0	80.0	70.0	
0.0	0.0	140.0	
50.0	0.0	140.0	
100.0	0.0	140.0	
0.0	40.0	140.0	
50.0	40.0	140.0	
100.0	40.0	140.0	
0.0	80.0	140.0	
50.0	80.0	140.0	
100.0	80.0	140.0	

CELLS	8	72
 8	0	1	4	3	9	10	13	12	
 8	1	2	5	4	10	11	14	13	
 8	4	5	8	7	13	14	17	16	
 8	3	4	7	6	12	13	16	15	
 8	9	10	13	12	18	19	22	21	
 8	10	11	14	13	19	20	23	22	
 8	13	14	17	16	22	23	26	25	
 8	12	13	16	15	21	22	25	24	

CELL_TYPES	8
 12
 12
 12
 12
 12
 12
 12
 12

POINT_DATA	27
VECTORS	u 	float 
0.0	0.0	0.0
-0.0002128224	0.0	0.0
-0.0002544246	0.0	0.0
0.0	0.0059785767	0.0
-0.0003266657	0.0059179952	0.0
-0.0007642721	0.0062987396	0.0
0.0	0.0133598786	0.0
-0.0005356853	0.0106924108	0.0
-0.0012880242	0.0138522855	0.0
0.0187381924	0.0277445676	-0.0344808982
-0.0001882196	0.0327477749	-0.0097363017
-0.0191665523	0.0281781941	-0.0345134955
0.0188391478	0.0058377742	-0.0193080879
-0.0003482246	0.0059643919	0.0048422202
-0.0195162488	0.0062182474	-0.0193912327
0.0185410074	-0.0163973432	-0.0343582197
-0.0005008719	-0.0204931979	-0.0096044479
-0.0194978037	-0.016021304	-0.0344195567
-0.1469676277	-0.1257264555	0.0051901577
-0.0001546976	-0.120369932	0.0720258228
0.1466915775	-0.1253605885	0.0051136553
-0.1460348936	0.0056788915	0.0578930259
-0.0002999167	0.0059142872	0.1245103689
0.1454249224	0.0060657995	0.0578467468
-0.1473317875	0.137238781	0.0052839373
-0.000449688	0.1320430439	0.0721769199
0.1464154491	0.1376143505	0.0052209181

VECTORS	v 	float 
0.0	0.0	0.0
0.0021006251	0.0	0.0
0.004201591	0.0	0.0
0.0	0.0016903931	0.0
0.0020969715	0.0016970053	0.0
0.0041940216	0.0016942943	0.0
0.0	0.0033907482	0.0
0.0021012654	0.0033849244	0.0
0.0041986421	0.003396893	0.0
-0.0001525759	-7.611e-05	-0.0079387561
0.0020996019	-5.97908e-05	-0.0077299207
0.0043518801	-7.33321e-05	-0.0079389089
-0.0001594345	0.0016942988	-0.00779539
0.0020995178	0.0016938087	-0.0075912177
0.0043582452	0.0016963811	-0.0077968281
-0.0001533792	0.0034624636	-0.0079378952
0.002097287	0.0034500015	-0.0077305973
0.00434908	0.003464345	-0.0079383757
-0.0012808658	-0.0010862876	-0.0150400325
0.0021005974	-0.0010758408	-0.0146185435
0.0054825343	-0.0010839287	-0.0150416738
-0.0012840616	0.0016929235	-0.0147201004
0.0020994787	0.0016949552	-0.0142983231
0.0054826733	0.0016955034	-0.014720035
-0.001283352	0.0044732934	-0.015039792
0.0020987998	0.0044644225	-0.0146184636
0.0054809091	0.0044757723	-0.0150412669

VECTORS	a 	float 
0.0	0.0	0.0
0.8826791962	0.0	0.0
1.7649196951	0.0	0.0
0.0	0.7068440793	0.0
0.8813574459	0.7057513034	0.0
1.7630754304	0.7069146709	0.0
0.0	1.4131570744	0.0
0.8830601449	1.4118623637	0.0
1.7657624405	1.4132867578	0.0
0.0038290341	0.0045548434	-3.0353265768
0.8818970765	0.0038592399	-3.0360587563
1.7601101223	0.0043607612	-3.035398594
0.0032550505	0.7063180478	-3.0351519335
0.8822988743	0.7064791552	-3.035807272
1.7612010616	0.7061355022	-3.0351385018
0.0039237366	1.4082298136	-3.0354007749
0.8819913661	1.408985485	-3.0362842258
1.7601735895	1.4080646477	-3.0354635769
-0.0068869086	-0.0056998281	-6.0666141382
0.8821373364	-0.0064431599	-6.0673763054
1.7711378487	-0.0058370409	-6.0668001109
-0.0086609027	0.706596664	-6.065982758
0.8820669733	0.706439186	-6.0663003287
1.7728300113	0.7064386718	-6.0658470555
-0.0067038057	1.4188760564	-6.0668150153
0.8822743771	1.4193393525	-6.0674376006
1.7712469861	1.4186924465	-6.0669900065

SCALARS	theta	float 1
LOOKUP_TABLE	default
302.4345588391
302.1385958797
302.4179589367
302.3084657044
302.0433358391
302.3063042029
302.410130432
302.1685045454
302.4119470379
294.2671661519
293.9690707224
294.2691903146
294.0962201597
293.7934110559
294.0960708172
294.2732048593
293.9665116759
294.2730305041
330.7870755153
330.405092011
330.7872568197
330.5446678159
330.1626105511
330.5447398068
330.7856027384
330.4051335012
330.785521341

SCALARS	sig_11	float	1
LOOKUP_TABLE	default
-89.3867633781
-62.0293664488
-88.1864875254
-72.6379856593
-47.7106891034
-72.5828756781
-88.4770653372
-65.1868843796
-89.0522360057
65.1419649146
96.0830031409
65.0640766003
91.6084549355
122.6098115176
91.6000330897
64.5981080185
95.7942081003
64.6177780906
-156.7461498914
-117.6786949925
-156.746091692
-120.5856157905
-81.432854248
-120.5735573672
-156.6289116799
-117.6320312551
-156.6485861234

SCALARS	sig_22	float	1
LOOKUP_TABLE	default
-78.7616824508
-53.9666695503
-77.0881236428
-60.5519889657
-39.7593751746
-59.7544845173
-75.0449874365
-57.5657257874
-74.7990585345
50.7011302555
72.6187017343
50.6645868633
78.1321330913
100.2416515735
78.1588446363
50.3695846883
72.8010869304
50.4290964461
-125.9136666308
-97.6611373989
-125.9320415824
-87.6721032844
-59.3859024006
-87.6676222158
-125.7836674145
-97.7275492772
-125.8265760503

SCALARS	sig_33	float	1
LOOKUP_TABLE	default
-130.1637226621
-74.5074839455
-129.2562415877
-95.6492019458
-42.5920549311
-95.5197164256
-128.3806754566
-76.4683179988
-128.639988416
92.8758576397
161.7679116125
92.7717874308
150.1575127022
218.9766624122
150.1094015549
92.7124698454
161.8628297024
92.6703461222
-358.0081211597
-271.0204570256
-358.0749411036
-277.1267731636
-189.9048595419
-277.0730907909
-357.9739896471
-270.9919135226
-357.9742116058

SCALARS vonMises	float	1
LOOKUP_TABLE	default
109.5511262427
95.6583291332
110.3851914714
80.021700483
56.7701846638
80.1153003304
111.6948493634
94.3005575824
111.5237149891
241.0754781617
201.3270042514
241.5237209939
194.6590361822
142.3431389391
194.6747111946
241.9086883005
200.3072759427
241.7897702769
257.4481774621
224.6997390198
257.561577263
236.8246480098
205.4806427944
236.8158784361
257.7520345172
224.5430051999
257.6876803619
