# vtk DataFile Version 2.0
Results
ASCII
DATASET UNSTRUCTURED_GRID
POINTS         27           float
0.0	0.0	0.0	
50.0	0.0	0.0	
100.0	0.0	0.0	
0.0	40.0	0.0	
50.0	40.0	0.0	
100.0	40.0	0.0	
0.0	80.0	0.0	
50.0	80.0	0.0	
100.0	80.0	0.0	
0.0	0.0	70.0	
50.0	0.0	70.0	
100.0	0.0	70.0	
0.0	40.0	70.0	
50.0	40.0	70.0	
100.0	40.0	70.0	
0.0	80.0	70.0	
50.0	80.0	70.0	
100.0	80.0	70.0	
0.0	0.0	140.0	
50.0	0.0	140.0	
100.0	0.0	140.0	
0.0	40.0	140.0	
50.0	40.0	140.0	
100.0	40.0	140.0	
0.0	80.0	140.0	
50.0	80.0	140.0	
100.0	80.0	140.0	

CELLS	8	72
 8	0	1	4	3	9	10	13	12	
 8	1	2	5	4	10	11	14	13	
 8	4	5	8	7	13	14	17	16	
 8	3	4	7	6	12	13	16	15	
 8	9	10	13	12	18	19	22	21	
 8	10	11	14	13	19	20	23	22	
 8	13	14	17	16	22	23	26	25	
 8	12	13	16	15	21	22	25	24	

CELL_TYPES	8
 12
 12
 12
 12
 12
 12
 12
 12

POINT_DATA	27
VECTORS	u 	float 
0.0	0.0	0.0
0.001115889	0.0	0.0
0.0022317781	0.0	0.0
0.0	0.0008927112	0.0
0.001115889	0.0008927112	0.0
0.0022317781	0.0008927112	0.0
0.0	0.0017854225	0.0
0.001115889	0.0017854225	0.0
0.0022317781	0.0017854225	0.0
0.0	-0.0	-0.0038537934
0.001115889	0.0	-0.0038537934
0.0022317781	-0.0	-0.0038537934
-0.0	0.0008927112	-0.0038537934
0.001115889	0.0008927112	-0.0038537934
0.0022317781	0.0008927112	-0.0038537934
0.0	0.0017854225	-0.0038537934
0.001115889	0.0017854225	-0.0038537934
0.0022317781	0.0017854225	-0.0038537934
-0.0	0.0	-0.0077075867
0.001115889	0.0	-0.0077075867
0.0022317781	0.0	-0.0077075867
-0.0	0.0008927112	-0.0077075867
0.001115889	0.0008927112	-0.0077075867
0.0022317781	0.0008927112	-0.0077075867
-0.0	0.0017854225	-0.0077075867
0.001115889	0.0017854225	-0.0077075867
0.0022317781	0.0017854225	-0.0077075867

VECTORS	v 	float 
0.0	0.0	0.0
-0.0022361647	0.0	0.0
-0.0044723295	0.0	0.0
0.0	-0.0017889318	0.0
-0.0022361647	-0.0017889318	0.0
-0.0044723295	-0.0017889318	0.0
0.0	-0.0035778636	0.0
-0.0022361647	-0.0035778636	0.0
-0.0044723295	-0.0035778636	0.0
-0.0	0.0	0.0077027027
-0.0022361647	0.0	0.0077027027
-0.0044723295	-0.0	0.0077027027
-0.0	-0.0017889318	0.0077027027
-0.0022361647	-0.0017889318	0.0077027027
-0.0044723295	-0.0017889318	0.0077027027
-0.0	-0.0035778636	0.0077027027
-0.0022361647	-0.0035778636	0.0077027027
-0.0044723295	-0.0035778636	0.0077027027
-0.0	0.0	0.0154054054
-0.0022361647	0.0	0.0154054054
-0.0044723295	-0.0	0.0154054054
-0.0	-0.0017889318	0.0154054054
-0.0022361647	-0.0017889318	0.0154054054
-0.0044723295	-0.0017889318	0.0154054054
-0.0	-0.0035778636	0.0154054054
-0.0022361647	-0.0035778636	0.0154054054
-0.0044723295	-0.0035778636	0.0154054054

VECTORS	a 	float 
0.0	0.0	0.0
-0.4785392535	0.0	0.0
-0.9570785071	0.0	0.0
0.0	-0.3828314028	0.0
-0.4785392535	-0.3828314028	0.0
-0.9570785071	-0.3828314028	0.0
0.0	-0.7656628057	0.0
-0.4785392535	-0.7656628057	0.0
-0.9570785071	-0.7656628057	0.0
-0.0	0.0	1.6483783784
-0.4785392535	0.0	1.6483783784
-0.9570785071	-0.0	1.6483783784
-0.0	-0.3828314028	1.6483783784
-0.4785392535	-0.3828314028	1.6483783784
-0.9570785071	-0.3828314028	1.6483783784
-0.0	-0.7656628057	1.6483783784
-0.4785392535	-0.7656628057	1.6483783784
-0.9570785071	-0.7656628057	1.6483783784
-0.0	0.0	3.2967567568
-0.4785392535	0.0	3.2967567568
-0.9570785071	-0.0	3.2967567568
-0.0	-0.3828314028	3.2967567568
-0.4785392535	-0.3828314028	3.2967567568
-0.9570785071	-0.3828314028	3.2967567568
-0.0	-0.7656628057	3.2967567568
-0.4785392535	-0.7656628057	3.2967567568
-0.9570785071	-0.7656628057	3.2967567568

SCALARS	theta	float 1
LOOKUP_TABLE	default
300.0446123983
300.0446123983
300.0446123983
300.0446123983
300.0446123983
300.0446123983
300.0446123983
300.0446123983
300.0446123983
300.0446123983
300.0446123983
300.0446123983
300.0446123983
300.0446123983
300.0446123983
300.0446123983
300.0446123983
300.0446123983
300.0446123983
300.0446123983
300.0446123983
300.0446123983
300.0446123983
300.0446123983
300.0446123983
300.0446123983
300.0446123983

SCALARS	sig_11	float	1
LOOKUP_TABLE	default
-7e-10
-7e-10
-7e-10
-7e-10
-7e-10
-7e-10
-7e-10
-7e-10
-7e-10
-7e-10
-7e-10
-7e-10
-7e-10
-7e-10
-7e-10
-7e-10
-7e-10
-7e-10
-7e-10
-7e-10
-7e-10
-7e-10
-7e-10
-7e-10
-7e-10
-7e-10
-7e-10

SCALARS	sig_22	float	1
LOOKUP_TABLE	default
-7e-10
-7e-10
-7e-10
-7e-10
-7e-10
-7e-10
-7e-10
-7e-10
-7e-10
-7e-10
-7e-10
-7e-10
-7e-10
-7e-10
-7e-10
-7e-10
-7e-10
-7e-10
-7e-10
-7e-10
-7e-10
-7e-10
-7e-10
-7e-10
-7e-10
-7e-10
-7e-10

SCALARS	sig_33	float	1
LOOKUP_TABLE	default
-12.5001302365
-12.5001302365
-12.5001302365
-12.5001302365
-12.5001302365
-12.5001302365
-12.5001302365
-12.5001302365
-12.5001302365
-12.5001302365
-12.5001302365
-12.5001302365
-12.5001302365
-12.5001302365
-12.5001302365
-12.5001302365
-12.5001302365
-12.5001302365
-12.5001302365
-12.5001302365
-12.5001302365
-12.5001302365
-12.5001302365
-12.5001302365
-12.5001302365
-12.5001302365
-12.5001302365

SCALARS vonMises	float	1
LOOKUP_TABLE	default
8.8389268555
8.8389268555
8.8389268555
8.8389268555
8.8389268555
8.8389268555
8.8389268555
8.8389268555
8.8389268555
8.8389268555
8.8389268555
8.8389268555
8.8389268555
8.8389268555
8.8389268555
8.8389268555
8.8389268555
8.8389268555
8.8389268555
8.8389268555
8.8389268555
8.8389268555
8.8389268555
8.8389268555
8.8389268555
8.8389268555
8.8389268555
