# vtk DataFile Version 2.0
Results
ASCII
DATASET UNSTRUCTURED_GRID
POINTS         27           float
0.0	0.0	0.0	
50.0	0.0	0.0	
100.0	0.0	0.0	
0.0	40.0	0.0	
50.0	40.0	0.0	
100.0	40.0	0.0	
0.0	80.0	0.0	
50.0	80.0	0.0	
100.0	80.0	0.0	
0.0	0.0	70.0	
50.0	0.0	70.0	
100.0	0.0	70.0	
0.0	40.0	70.0	
50.0	40.0	70.0	
100.0	40.0	70.0	
0.0	80.0	70.0	
50.0	80.0	70.0	
100.0	80.0	70.0	
0.0	0.0	140.0	
50.0	0.0	140.0	
100.0	0.0	140.0	
0.0	40.0	140.0	
50.0	40.0	140.0	
100.0	40.0	140.0	
0.0	80.0	140.0	
50.0	80.0	140.0	
100.0	80.0	140.0	

CELLS	8	72
 8	0	1	4	3	9	10	13	12	
 8	1	2	5	4	10	11	14	13	
 8	4	5	8	7	13	14	17	16	
 8	3	4	7	6	12	13	16	15	
 8	9	10	13	12	18	19	22	21	
 8	10	11	14	13	19	20	23	22	
 8	13	14	17	16	22	23	26	25	
 8	12	13	16	15	21	22	25	24	

CELL_TYPES	8
 12
 12
 12
 12
 12
 12
 12
 12

POINT_DATA	27
VECTORS	u 	float 
0.0	0.0	0.0
0.0011176561	0.0	0.0
0.0022353123	0.0	0.0
0.0	0.0008941249	0.0
0.0011176561	0.0008941249	0.0
0.0022353123	0.0008941249	0.0
0.0	0.0017882498	0.0
0.0011176561	0.0017882498	0.0
0.0022353123	0.0017882498	0.0
-0.0	-0.0	-0.0038513195
0.0011176561	-0.0	-0.0038513195
0.0022353123	-0.0	-0.0038513195
-0.0	0.0008941249	-0.0038513195
0.0011176561	0.0008941249	-0.0038513195
0.0022353123	0.0008941249	-0.0038513195
-0.0	0.0017882498	-0.0038513195
0.0011176561	0.0017882498	-0.0038513195
0.0022353123	0.0017882498	-0.0038513195
-0.0	-0.0	-0.0077026389
0.0011176561	-0.0	-0.0077026389
0.0022353123	-0.0	-0.0077026389
-0.0	0.0008941249	-0.0077026389
0.0011176561	0.0008941249	-0.0077026389
0.0022353123	0.0008941249	-0.0077026389
-0.0	0.0017882498	-0.0077026389
0.0011176561	0.0017882498	-0.0077026389
0.0022353123	0.0017882498	-0.0077026389

VECTORS	v 	float 
0.0	0.0	0.0
0.0022361647	0.0	0.0
0.0044723295	0.0	0.0
0.0	0.0017889318	0.0
0.0022361647	0.0017889318	0.0
0.0044723295	0.0017889318	0.0
0.0	0.0035778636	0.0
0.0022361647	0.0035778636	0.0
0.0044723295	0.0035778636	0.0
0.0	-0.0	-0.0077027027
0.0022361647	-0.0	-0.0077027027
0.0044723295	0.0	-0.0077027027
0.0	0.0017889318	-0.0077027027
0.0022361647	0.0017889318	-0.0077027027
0.0044723295	0.0017889318	-0.0077027027
0.0	0.0035778636	-0.0077027027
0.0022361647	0.0035778636	-0.0077027027
0.0044723295	0.0035778636	-0.0077027027
0.0	-0.0	-0.0154054054
0.0022361647	-0.0	-0.0154054054
0.0044723295	0.0	-0.0154054054
0.0	0.0017889318	-0.0154054054
0.0022361647	0.0017889318	-0.0154054054
0.0044723295	0.0017889318	-0.0154054054
0.0	0.0035778636	-0.0154054054
0.0022361647	0.0035778636	-0.0154054054
0.0044723295	0.0035778636	-0.0154054054

VECTORS	a 	float 
0.0	0.0	0.0
0.076029601	0.0	0.0
0.1520592021	0.0	0.0
0.0	0.0608236808	0.0
0.076029601	0.0608236808	0.0
0.1520592021	0.0608236808	0.0
0.0	0.1216473616	0.0
0.076029601	0.1216473616	0.0
0.1520592021	0.1216473616	0.0
0.0	-0.0	-0.2618918919
0.076029601	-0.0	-0.2618918919
0.1520592021	0.0	-0.2618918919
0.0	0.0608236808	-0.2618918919
0.076029601	0.0608236808	-0.2618918919
0.1520592021	0.0608236808	-0.2618918919
0.0	0.1216473616	-0.2618918919
0.076029601	0.1216473616	-0.2618918919
0.1520592021	0.1216473616	-0.2618918919
0.0	-0.0	-0.5237837838
0.076029601	-0.0	-0.5237837838
0.1520592021	0.0	-0.5237837838
0.0	0.0608236808	-0.5237837838
0.076029601	0.0608236808	-0.5237837838
0.1520592021	0.0608236808	-0.5237837838
0.0	0.1216473616	-0.5237837838
0.076029601	0.1216473616	-0.5237837838
0.1520592021	0.1216473616	-0.5237837838

SCALARS	theta	float 1
LOOKUP_TABLE	default
300.0449658136
300.0449658136
300.0449658136
300.0449658136
300.0449658136
300.0449658136
300.0449658136
300.0449658136
300.0449658136
300.0449658136
300.0449658136
300.0449658136
300.0449658136
300.0449658136
300.0449658136
300.0449658136
300.0449658136
300.0449658136
300.0449658136
300.0449658136
300.0449658136
300.0449658136
300.0449658136
300.0449658136
300.0449658136
300.0449658136
300.0449658136

SCALARS	sig_11	float	1
LOOKUP_TABLE	default
4.3e-09
4.3e-09
4.3e-09
4.3e-09
4.3e-09
4.3e-09
4.3e-09
4.3e-09
4.3e-09
4.2e-09
4.2e-09
4.2e-09
4.2e-09
4.2e-09
4.2e-09
4.2e-09
4.2e-09
4.2e-09
4.2e-09
4.2e-09
4.2e-09
4.2e-09
4.2e-09
4.2e-09
4.2e-09
4.2e-09
4.2e-09

SCALARS	sig_22	float	1
LOOKUP_TABLE	default
4.2e-09
4.3e-09
4.3e-09
4.3e-09
4.3e-09
4.3e-09
4.3e-09
4.3e-09
4.3e-09
4.2e-09
4.2e-09
4.2e-09
4.2e-09
4.2e-09
4.2e-09
4.2e-09
4.2e-09
4.2e-09
4.2e-09
4.2e-09
4.2e-09
4.2e-09
4.2e-09
4.2e-09
4.2e-09
4.2e-09
4.2e-09

SCALARS	sig_33	float	1
LOOKUP_TABLE	default
-12.5001289325
-12.5001289325
-12.5001289325
-12.5001289325
-12.5001289325
-12.5001289325
-12.5001289325
-12.5001289325
-12.5001289325
-12.5001289325
-12.5001289325
-12.5001289325
-12.5001289325
-12.5001289325
-12.5001289325
-12.5001289325
-12.5001289325
-12.5001289325
-12.5001289325
-12.5001289325
-12.5001289325
-12.5001289325
-12.5001289325
-12.5001289325
-12.5001289325
-12.5001289325
-12.5001289325

SCALARS vonMises	float	1
LOOKUP_TABLE	default
8.8389259369
8.8389259369
8.8389259369
8.8389259369
8.8389259369
8.8389259369
8.8389259369
8.8389259369
8.8389259369
8.8389259369
8.8389259369
8.8389259369
8.8389259369
8.8389259369
8.8389259369
8.8389259369
8.8389259369
8.8389259369
8.8389259369
8.8389259369
8.8389259369
8.8389259369
8.8389259369
8.8389259369
8.8389259369
8.8389259369
8.8389259369
