# vtk DataFile Version 2.0
Results
ASCII
DATASET UNSTRUCTURED_GRID
POINTS         27           float
0.0	0.0	0.0	
50.0	0.0	0.0	
100.0	0.0	0.0	
0.0	40.0	0.0	
50.0	40.0	0.0	
100.0	40.0	0.0	
0.0	80.0	0.0	
50.0	80.0	0.0	
100.0	80.0	0.0	
0.0	0.0	70.0	
50.0	0.0	70.0	
100.0	0.0	70.0	
0.0	40.0	70.0	
50.0	40.0	70.0	
100.0	40.0	70.0	
0.0	80.0	70.0	
50.0	80.0	70.0	
100.0	80.0	70.0	
0.0	0.0	140.0	
50.0	0.0	140.0	
100.0	0.0	140.0	
0.0	40.0	140.0	
50.0	40.0	140.0	
100.0	40.0	140.0	
0.0	80.0	140.0	
50.0	80.0	140.0	
100.0	80.0	140.0	

CELLS	8	72
 8	0	1	4	3	9	10	13	12	
 8	1	2	5	4	10	11	14	13	
 8	4	5	8	7	13	14	17	16	
 8	3	4	7	6	12	13	16	15	
 8	9	10	13	12	18	19	22	21	
 8	10	11	14	13	19	20	23	22	
 8	13	14	17	16	22	23	26	25	
 8	12	13	16	15	21	22	25	24	

CELL_TYPES	8
 12
 12
 12
 12
 12
 12
 12
 12

POINT_DATA	27
VECTORS	u 	float 
0.0	0.0	0.0
0.0011155987	0.0	0.0
0.0022311975	0.0	0.0
0.0	0.000892479	0.0
0.0011155987	0.000892479	0.0
0.0022311975	0.000892479	0.0
0.0	0.001784958	0.0
0.0011155987	0.001784958	0.0
0.0022311975	0.001784958	0.0
-0.0	0.0	-0.0038541998
0.0011155987	0.0	-0.0038541998
0.0022311975	-0.0	-0.0038541998
-0.0	0.000892479	-0.0038541998
0.0011155987	0.000892479	-0.0038541998
0.0022311975	0.000892479	-0.0038541998
-0.0	0.001784958	-0.0038541998
0.0011155987	0.001784958	-0.0038541998
0.0022311975	0.001784958	-0.0038541998
-0.0	0.0	-0.0077083996
0.0011155987	0.0	-0.0077083996
0.0022311975	-0.0	-0.0077083996
0.0	0.000892479	-0.0077083996
0.0011155987	0.000892479	-0.0077083996
0.0022311975	0.000892479	-0.0077083996
0.0	0.001784958	-0.0077083996
0.0011155987	0.001784958	-0.0077083996
0.0022311975	0.001784958	-0.0077083996

VECTORS	v 	float 
0.0	0.0	0.0
0.0022361647	0.0	0.0
0.0044723295	0.0	0.0
0.0	0.0017889318	0.0
0.0022361647	0.0017889318	0.0
0.0044723295	0.0017889318	0.0
0.0	0.0035778636	0.0
0.0022361647	0.0035778636	0.0
0.0044723295	0.0035778636	0.0
0.0	-0.0	-0.0077027027
0.0022361647	-0.0	-0.0077027027
0.0044723295	0.0	-0.0077027027
0.0	0.0017889318	-0.0077027027
0.0022361647	0.0017889318	-0.0077027027
0.0044723295	0.0017889318	-0.0077027027
0.0	0.0035778636	-0.0077027027
0.0022361647	0.0035778636	-0.0077027027
0.0044723295	0.0035778636	-0.0077027027
0.0	-0.0	-0.0154054054
0.0022361647	-0.0	-0.0154054054
0.0044723295	0.0	-0.0154054054
0.0	0.0017889318	-0.0154054054
0.0022361647	0.0017889318	-0.0154054054
0.0044723295	0.0017889318	-0.0154054054
0.0	0.0035778636	-0.0154054054
0.0022361647	0.0035778636	-0.0154054054
0.0044723295	0.0035778636	-0.0154054054

VECTORS	a 	float 
0.0	0.0	0.0
0.559041184	0.0	0.0
1.1180823681	0.0	0.0
0.0	0.4472329472	0.0
0.559041184	0.4472329472	0.0
1.1180823681	0.4472329472	0.0
0.0	0.8944658945	0.0
0.559041184	0.8944658945	0.0
1.1180823681	0.8944658945	0.0
0.0	-0.0	-1.9256756757
0.559041184	-0.0	-1.9256756757
1.1180823681	0.0	-1.9256756757
0.0	0.4472329472	-1.9256756757
0.559041184	0.4472329472	-1.9256756757
1.1180823681	0.4472329472	-1.9256756757
0.0	0.8944658945	-1.9256756757
0.559041184	0.8944658945	-1.9256756757
1.1180823681	0.8944658945	-1.9256756757
0.0	-0.0	-3.8513513514
0.559041184	-0.0	-3.8513513514
1.1180823681	0.0	-3.8513513514
0.0	0.4472329472	-3.8513513514
0.559041184	0.4472329472	-3.8513513514
1.1180823681	0.4472329472	-3.8513513514
0.0	0.8944658945	-3.8513513514
0.559041184	0.8944658945	-3.8513513514
1.1180823681	0.8944658945	-3.8513513514

SCALARS	theta	float 1
LOOKUP_TABLE	default
300.044554335
300.044554335
300.044554335
300.044554335
300.044554335
300.044554335
300.044554335
300.044554335
300.044554335
300.044554335
300.044554335
300.044554335
300.044554335
300.044554335
300.044554335
300.044554335
300.044554335
300.044554335
300.044554335
300.044554335
300.044554335
300.044554335
300.044554335
300.044554335
300.044554335
300.044554335
300.044554335

SCALARS	sig_11	float	1
LOOKUP_TABLE	default
4.3e-09
4.2e-09
4.2e-09
4.2e-09
4.2e-09
4.2e-09
4.2e-09
4.2e-09
4.2e-09
4.2e-09
4.2e-09
4.2e-09
4.2e-09
4.2e-09
4.2e-09
4.2e-09
4.2e-09
4.2e-09
4.2e-09
4.2e-09
4.2e-09
4.2e-09
4.2e-09
4.2e-09
4.2e-09
4.2e-09
4.2e-09

SCALARS	sig_22	float	1
LOOKUP_TABLE	default
4.3e-09
4.2e-09
4.2e-09
4.2e-09
4.2e-09
4.2e-09
4.2e-09
4.2e-09
4.2e-09
4.2e-09
4.2e-09
4.2e-09
4.2e-09
4.2e-09
4.2e-09
4.2e-09
4.2e-09
4.2e-09
4.2e-09
4.2e-09
4.2e-09
4.2e-09
4.2e-09
4.2e-09
4.2e-09
4.2e-09
4.2e-09

SCALARS	sig_33	float	1
LOOKUP_TABLE	default
-12.5001304756
-12.5001304756
-12.5001304756
-12.5001304756
-12.5001304756
-12.5001304756
-12.5001304756
-12.5001304756
-12.5001304756
-12.5001304756
-12.5001304756
-12.5001304756
-12.5001304756
-12.5001304756
-12.5001304756
-12.5001304756
-12.5001304756
-12.5001304756
-12.5001304756
-12.5001304756
-12.5001304756
-12.5001304756
-12.5001304756
-12.5001304756
-12.5001304756
-12.5001304756
-12.5001304756

SCALARS vonMises	float	1
LOOKUP_TABLE	default
8.838927028
8.838927028
8.838927028
8.838927028
8.838927028
8.838927028
8.838927028
8.838927028
8.838927028
8.838927028
8.838927028
8.838927028
8.838927028
8.838927028
8.838927028
8.838927028
8.838927028
8.838927028
8.838927028
8.838927028
8.838927028
8.838927028
8.838927028
8.838927028
8.838927028
8.838927028
8.838927028
