# vtk DataFile Version 2.0
Results
ASCII
DATASET UNSTRUCTURED_GRID
POINTS         27           float
0.0	0.0	0.0	
50.0	0.0	0.0	
100.0	0.0	0.0	
0.0	40.0	0.0	
50.0	40.0	0.0	
100.0	40.0	0.0	
0.0	80.0	0.0	
50.0	80.0	0.0	
100.0	80.0	0.0	
0.0	0.0	70.0	
50.0	0.0	70.0	
100.0	0.0	70.0	
0.0	40.0	70.0	
50.0	40.0	70.0	
100.0	40.0	70.0	
0.0	80.0	70.0	
50.0	80.0	70.0	
100.0	80.0	70.0	
0.0	0.0	140.0	
50.0	0.0	140.0	
100.0	0.0	140.0	
0.0	40.0	140.0	
50.0	40.0	140.0	
100.0	40.0	140.0	
0.0	80.0	140.0	
50.0	80.0	140.0	
100.0	80.0	140.0	

CELLS	8	72
 8	0	1	4	3	9	10	13	12	
 8	1	2	5	4	10	11	14	13	
 8	4	5	8	7	13	14	17	16	
 8	3	4	7	6	12	13	16	15	
 8	9	10	13	12	18	19	22	21	
 8	10	11	14	13	19	20	23	22	
 8	13	14	17	16	22	23	26	25	
 8	12	13	16	15	21	22	25	24	

CELL_TYPES	8
 12
 12
 12
 12
 12
 12
 12
 12

POINT_DATA	27
VECTORS	u 	float 
0.0	0.0	0.0
-3.8478e-06	0.0	0.0
-7.6957e-06	0.0	0.0
0.0	-3.0783e-06	0.0
-3.8478e-06	-3.0783e-06	0.0
-7.6957e-06	-3.0783e-06	0.0
0.0	-6.1565e-06	0.0
-3.8478e-06	-6.1565e-06	0.0
-7.6957e-06	-6.1565e-06	0.0
-0.0	0.0	-5.387e-06
-3.8478e-06	0.0	-5.387e-06
-7.6957e-06	0.0	-5.387e-06
-0.0	-3.0783e-06	-5.387e-06
-3.8478e-06	-3.0783e-06	-5.387e-06
-7.6957e-06	-3.0783e-06	-5.387e-06
0.0	-6.1565e-06	-5.387e-06
-3.8478e-06	-6.1565e-06	-5.387e-06
-7.6957e-06	-6.1565e-06	-5.387e-06
-0.0	-0.0	-1.07739e-05
-3.8478e-06	-0.0	-1.07739e-05
-7.6957e-06	-0.0	-1.07739e-05
-0.0	-3.0783e-06	-1.07739e-05
-3.8478e-06	-3.0783e-06	-1.07739e-05
-7.6957e-06	-3.0783e-06	-1.07739e-05
-0.0	-6.1565e-06	-1.07739e-05
-3.8478e-06	-6.1565e-06	-1.07739e-05
-7.6957e-06	-6.1565e-06	-1.07739e-05

VECTORS	v 	float 
0.0	0.0	0.0
3.593e-07	0.0	0.0
7.185e-07	0.0	0.0
0.0	2.874e-07	0.0
3.593e-07	2.874e-07	0.0
7.185e-07	2.874e-07	0.0
0.0	5.748e-07	0.0
3.593e-07	5.748e-07	0.0
7.185e-07	5.748e-07	0.0
0.0	-0.0	-1.7684e-06
3.593e-07	-0.0	-1.7684e-06
7.185e-07	-0.0	-1.7684e-06
0.0	2.874e-07	-1.7684e-06
3.593e-07	2.874e-07	-1.7684e-06
7.185e-07	2.874e-07	-1.7684e-06
0.0	5.748e-07	-1.7684e-06
3.593e-07	5.748e-07	-1.7684e-06
7.185e-07	5.748e-07	-1.7684e-06
0.0	-0.0	-3.5369e-06
3.593e-07	-0.0	-3.5369e-06
7.185e-07	-0.0	-3.5369e-06
0.0	2.874e-07	-3.5369e-06
3.593e-07	2.874e-07	-3.5369e-06
7.185e-07	2.874e-07	-3.5369e-06
0.0	5.748e-07	-3.5369e-06
3.593e-07	5.748e-07	-3.5369e-06
7.185e-07	5.748e-07	-3.5369e-06

VECTORS	a 	float 
0.0	0.0	0.0
0.8946333134	0.0	0.0
1.7892666269	0.0	0.0
0.0	0.7157066507	0.0
0.8946333134	0.7157066507	0.0
1.7892666269	0.7157066507	0.0
0.0	1.4314133015	0.0
0.8946333134	1.4314133015	0.0
1.7892666269	1.4314133015	0.0
0.0	-0.0	-3.0819051767
0.8946333134	-0.0	-3.0819051767
1.7892666269	-0.0	-3.0819051767
0.0	0.7157066507	-3.0819051767
0.8946333134	0.7157066507	-3.0819051767
1.7892666269	0.7157066507	-3.0819051767
0.0	1.4314133015	-3.0819051767
0.8946333134	1.4314133015	-3.0819051767
1.7892666269	1.4314133015	-3.0819051767
0.0	-0.0	-6.1638103533
0.8946333134	-0.0	-6.1638103533
1.7892666269	-0.0	-6.1638103533
0.0	0.7157066507	-6.1638103533
0.8946333134	0.7157066507	-6.1638103533
1.7892666269	0.7157066507	-6.1638103533
0.0	1.4314133015	-6.1638103533
0.8946333134	1.4314133015	-6.1638103533
1.7892666269	1.4314133015	-6.1638103533

SCALARS	theta	float 1
LOOKUP_TABLE	default
299.9992304327
299.9992304327
299.9992304327
299.9992304327
299.9992304327
299.9992304327
299.9992304327
299.9992304327
299.9992304327
299.9992304327
299.9992304327
299.9992304327
299.9992304327
299.9992304327
299.9992304327
299.9992304327
299.9992304327
299.9992304327
299.9992304327
299.9992304327
299.9992304327
299.9992304327
299.9992304327
299.9992304327
299.9992304327
299.9992304327
299.9992304327

SCALARS	sig_11	float	1
LOOKUP_TABLE	default
-0.0
0.0
0.0
0.0
0.0
-0.0
0.0
0.0
-0.0
0.0
0.0
0.0
0.0
0.0
0.0
0.0
0.0
0.0
0.0
0.0
0.0
0.0
0.0
0.0
0.0
0.0
0.0

SCALARS	sig_22	float	1
LOOKUP_TABLE	default
-0.0
0.0
0.0
0.0
0.0
-0.0
0.0
0.0
-0.0
0.0
0.0
0.0
0.0
0.0
0.0
0.0
0.0
0.0
0.0
0.0
0.0
0.0
0.0
0.0
0.0
0.0
0.0

SCALARS	sig_33	float	1
LOOKUP_TABLE	default
0.0
0.0
0.0
0.0
0.0
-0.0
0.0
0.0
-0.0
0.0
0.0
0.0
0.0
0.0
0.0
0.0
0.0
0.0
0.0
0.0
0.0
0.0
0.0
0.0
0.0
0.0
0.0

SCALARS vonMises	float	1
LOOKUP_TABLE	default
0.0
0.0
0.0
0.0
0.0
0.0
0.0
0.0
0.0
0.0
0.0
0.0
0.0
0.0
0.0
0.0
0.0
0.0
0.0
0.0
0.0
0.0
0.0
0.0
0.0
0.0
0.0
