# vtk DataFile Version 2.0
Results
ASCII
DATASET UNSTRUCTURED_GRID
POINTS         27           float
0.0	0.0	0.0	
50.0	0.0	0.0	
100.0	0.0	0.0	
0.0	40.0	0.0	
50.0	40.0	0.0	
100.0	40.0	0.0	
0.0	80.0	0.0	
50.0	80.0	0.0	
100.0	80.0	0.0	
0.0	0.0	70.0	
50.0	0.0	70.0	
100.0	0.0	70.0	
0.0	40.0	70.0	
50.0	40.0	70.0	
100.0	40.0	70.0	
0.0	80.0	70.0	
50.0	80.0	70.0	
100.0	80.0	70.0	
0.0	0.0	140.0	
50.0	0.0	140.0	
100.0	0.0	140.0	
0.0	40.0	140.0	
50.0	40.0	140.0	
100.0	40.0	140.0	
0.0	80.0	140.0	
50.0	80.0	140.0	
100.0	80.0	140.0	

CELLS	8	72
 8	0	1	4	3	9	10	13	12	
 8	1	2	5	4	10	11	14	13	
 8	4	5	8	7	13	14	17	16	
 8	3	4	7	6	12	13	16	15	
 8	9	10	13	12	18	19	22	21	
 8	10	11	14	13	19	20	23	22	
 8	13	14	17	16	22	23	26	25	
 8	12	13	16	15	21	22	25	24	

CELL_TYPES	8
 12
 12
 12
 12
 12
 12
 12
 12

POINT_DATA	27
VECTORS	u 	float 
0.0	0.0	0.0
0.0011146843	0.0	0.0
0.0022293687	0.0	0.0
0.0	0.0008917475	0.0
0.0011146843	0.0008917475	0.0
0.0022293687	0.0008917475	0.0
0.0	0.0017834949	0.0
0.0011146843	0.0017834949	0.0
0.0022293687	0.0017834949	0.0
-0.0	0.0	-0.00385548
0.0011146843	0.0	-0.00385548
0.0022293687	-0.0	-0.00385548
0.0	0.0008917475	-0.00385548
0.0011146843	0.0008917475	-0.00385548
0.0022293687	0.0008917475	-0.00385548
0.0	0.0017834949	-0.00385548
0.0011146843	0.0017834949	-0.00385548
0.0022293687	0.0017834949	-0.00385548
-0.0	-0.0	-0.0077109599
0.0011146843	-0.0	-0.0077109599
0.0022293687	-0.0	-0.0077109599
-0.0	0.0008917475	-0.0077109599
0.0011146843	0.0008917475	-0.0077109599
0.0022293687	0.0008917475	-0.0077109599
-0.0	0.0017834949	-0.0077109599
0.0011146843	0.0017834949	-0.0077109599
0.0022293687	0.0017834949	-0.0077109599

VECTORS	v 	float 
0.0	0.0	0.0
0.0022361647	0.0	0.0
0.0044723295	0.0	0.0
0.0	0.0017889318	0.0
0.0022361647	0.0017889318	0.0
0.0044723295	0.0017889318	0.0
0.0	0.0035778636	0.0
0.0022361647	0.0035778636	0.0
0.0044723295	0.0035778636	0.0
0.0	-0.0	-0.0077027027
0.0022361647	-0.0	-0.0077027027
0.0044723295	0.0	-0.0077027027
0.0	0.0017889318	-0.0077027027
0.0022361647	0.0017889318	-0.0077027027
0.0044723295	0.0017889318	-0.0077027027
0.0	0.0035778636	-0.0077027027
0.0022361647	0.0035778636	-0.0077027027
0.0044723295	0.0035778636	-0.0077027027
0.0	-0.0	-0.0154054054
0.0022361647	-0.0	-0.0154054054
0.0044723295	0.0	-0.0154054054
0.0	0.0017889318	-0.0154054054
0.0022361647	0.0017889318	-0.0154054054
0.0044723295	0.0017889318	-0.0154054054
0.0	0.0035778636	-0.0154054054
0.0022361647	0.0035778636	-0.0154054054
0.0044723295	0.0035778636	-0.0154054054

VECTORS	a 	float 
0.0	0.0	0.0
0.7737129987	0.0	0.0
1.5474259974	0.0	0.0
0.0	0.618970399	0.0
0.7737129987	0.618970399	0.0
1.5474259974	0.618970399	0.0
0.0	1.2379407979	0.0
0.7737129987	1.2379407979	0.0
1.5474259974	1.2379407979	0.0
0.0	-0.0	-2.6651351351
0.7737129987	-0.0	-2.6651351351
1.5474259974	0.0	-2.6651351351
0.0	0.618970399	-2.6651351351
0.7737129987	0.618970399	-2.6651351351
1.5474259974	0.618970399	-2.6651351351
0.0	1.2379407979	-2.6651351351
0.7737129987	1.2379407979	-2.6651351351
1.5474259974	1.2379407979	-2.6651351351
0.0	-0.0	-5.3302702703
0.7737129987	-0.0	-5.3302702703
1.5474259974	0.0	-5.3302702703
0.0	0.618970399	-5.3302702703
0.7737129987	0.618970399	-5.3302702703
1.5474259974	0.618970399	-5.3302702703
0.0	1.2379407979	-5.3302702703
0.7737129987	1.2379407979	-5.3302702703
1.5474259974	1.2379407979	-5.3302702703

SCALARS	theta	float 1
LOOKUP_TABLE	default
300.0443714557
300.0443714557
300.0443714557
300.0443714557
300.0443714557
300.0443714557
300.0443714557
300.0443714557
300.0443714557
300.0443714557
300.0443714557
300.0443714557
300.0443714557
300.0443714557
300.0443714557
300.0443714557
300.0443714557
300.0443714557
300.0443714557
300.0443714557
300.0443714557
300.0443714557
300.0443714557
300.0443714557
300.0443714557
300.0443714557
300.0443714557

SCALARS	sig_11	float	1
LOOKUP_TABLE	default
4.2e-09
4.2e-09
4.2e-09
4.2e-09
4.2e-09
4.2e-09
4.2e-09
4.2e-09
4.2e-09
4.2e-09
4.2e-09
4.2e-09
4.2e-09
4.2e-09
4.2e-09
4.2e-09
4.2e-09
4.2e-09
4.2e-09
4.2e-09
4.2e-09
4.2e-09
4.2e-09
4.2e-09
4.2e-09
4.2e-09
4.2e-09

SCALARS	sig_22	float	1
LOOKUP_TABLE	default
4.2e-09
4.2e-09
4.2e-09
4.2e-09
4.2e-09
4.2e-09
4.2e-09
4.2e-09
4.2e-09
4.2e-09
4.2e-09
4.2e-09
4.2e-09
4.2e-09
4.2e-09
4.2e-09
4.2e-09
4.2e-09
4.2e-09
4.2e-09
4.2e-09
4.2e-09
4.2e-09
4.2e-09
4.2e-09
4.2e-09
4.2e-09

SCALARS	sig_33	float	1
LOOKUP_TABLE	default
-12.5001311615
-12.5001311615
-12.5001311615
-12.5001311615
-12.5001311615
-12.5001311615
-12.5001311615
-12.5001311615
-12.5001311615
-12.5001311615
-12.5001311615
-12.5001311615
-12.5001311615
-12.5001311615
-12.5001311615
-12.5001311615
-12.5001311615
-12.5001311615
-12.5001311615
-12.5001311615
-12.5001311615
-12.5001311615
-12.5001311615
-12.5001311615
-12.5001311615
-12.5001311615
-12.5001311615

SCALARS vonMises	float	1
LOOKUP_TABLE	default
8.838927513
8.838927513
8.838927513
8.838927513
8.838927513
8.838927513
8.838927513
8.838927513
8.838927513
8.838927513
8.838927513
8.838927513
8.838927513
8.838927513
8.838927513
8.838927513
8.838927513
8.838927513
8.838927513
8.838927513
8.838927513
8.838927513
8.838927513
8.838927513
8.838927513
8.838927513
8.838927513
