# vtk DataFile Version 2.0
Results
ASCII
DATASET UNSTRUCTURED_GRID
POINTS         27           float
0.0	0.0	0.0	
50.0	0.0	0.0	
100.0	0.0	0.0	
0.0	40.0	0.0	
50.0	40.0	0.0	
100.0	40.0	0.0	
0.0	80.0	0.0	
50.0	80.0	0.0	
100.0	80.0	0.0	
0.0	0.0	70.0	
50.0	0.0	70.0	
100.0	0.0	70.0	
0.0	40.0	70.0	
50.0	40.0	70.0	
100.0	40.0	70.0	
0.0	80.0	70.0	
50.0	80.0	70.0	
100.0	80.0	70.0	
0.0	0.0	140.0	
50.0	0.0	140.0	
100.0	0.0	140.0	
0.0	40.0	140.0	
50.0	40.0	140.0	
100.0	40.0	140.0	
0.0	80.0	140.0	
50.0	80.0	140.0	
100.0	80.0	140.0	

CELLS	8	72
 8	0	1	4	3	9	10	13	12	
 8	1	2	5	4	10	11	14	13	
 8	4	5	8	7	13	14	17	16	
 8	3	4	7	6	12	13	16	15	
 8	9	10	13	12	18	19	22	21	
 8	10	11	14	13	19	20	23	22	
 8	13	14	17	16	22	23	26	25	
 8	12	13	16	15	21	22	25	24	

CELL_TYPES	8
 12
 12
 12
 12
 12
 12
 12
 12

POINT_DATA	27
VECTORS	u 	float 
0.0	0.0	0.0
0.0011145175	0.0	0.0
0.0022290351	0.0	0.0
0.0	0.000891614	0.0
0.0011145175	0.000891614	0.0
0.0022290351	0.000891614	0.0
0.0	0.0017832281	0.0
0.0011145175	0.0017832281	0.0
0.0022290351	0.0017832281	0.0
-0.0	0.0	-0.0038557135
0.0011145175	0.0	-0.0038557135
0.0022290351	-0.0	-0.0038557135
-0.0	0.000891614	-0.0038557135
0.0011145175	0.000891614	-0.0038557135
0.0022290351	0.000891614	-0.0038557135
-0.0	0.0017832281	-0.0038557135
0.0011145175	0.0017832281	-0.0038557135
0.0022290351	0.0017832281	-0.0038557135
-0.0	-0.0	-0.0077114269
0.0011145175	-0.0	-0.0077114269
0.0022290351	-0.0	-0.0077114269
-0.0	0.000891614	-0.0077114269
0.0011145175	0.000891614	-0.0077114269
0.0022290351	0.000891614	-0.0077114269
-0.0	0.0017832281	-0.0077114269
0.0011145175	0.0017832281	-0.0077114269
0.0022290351	0.0017832281	-0.0077114269

VECTORS	v 	float 
0.0	0.0	0.0
-0.0022361647	0.0	0.0
-0.0044723295	0.0	0.0
0.0	-0.0017889318	0.0
-0.0022361647	-0.0017889318	0.0
-0.0044723295	-0.0017889318	0.0
0.0	-0.0035778636	0.0
-0.0022361647	-0.0035778636	0.0
-0.0044723295	-0.0035778636	0.0
-0.0	0.0	0.0077027027
-0.0022361647	0.0	0.0077027027
-0.0044723295	-0.0	0.0077027027
-0.0	-0.0017889318	0.0077027027
-0.0022361647	-0.0017889318	0.0077027027
-0.0044723295	-0.0017889318	0.0077027027
-0.0	-0.0035778636	0.0077027027
-0.0022361647	-0.0035778636	0.0077027027
-0.0044723295	-0.0035778636	0.0077027027
-0.0	0.0	0.0154054054
-0.0022361647	0.0	0.0154054054
-0.0044723295	-0.0	0.0154054054
-0.0	-0.0017889318	0.0154054054
-0.0022361647	-0.0017889318	0.0154054054
-0.0044723295	-0.0017889318	0.0154054054
-0.0	-0.0035778636	0.0154054054
-0.0022361647	-0.0035778636	0.0154054054
-0.0044723295	-0.0035778636	0.0154054054

VECTORS	a 	float 
0.0	0.0	0.0
-0.8005469755	0.0	0.0
-1.6010939511	0.0	0.0
0.0	-0.6404375804	0.0
-0.8005469755	-0.6404375804	0.0
-1.6010939511	-0.6404375804	0.0
0.0	-1.2808751609	0.0
-0.8005469755	-1.2808751609	0.0
-1.6010939511	-1.2808751609	0.0
-0.0	0.0	2.7575675676
-0.8005469755	0.0	2.7575675676
-1.6010939511	-0.0	2.7575675676
-0.0	-0.6404375804	2.7575675676
-0.8005469755	-0.6404375804	2.7575675676
-1.6010939511	-0.6404375804	2.7575675676
-0.0	-1.2808751609	2.7575675676
-0.8005469755	-1.2808751609	2.7575675676
-1.6010939511	-1.2808751609	2.7575675676
-0.0	0.0	5.5151351351
-0.8005469755	0.0	5.5151351351
-1.6010939511	-0.0	5.5151351351
-0.0	-0.6404375804	5.5151351351
-0.8005469755	-0.6404375804	5.5151351351
-1.6010939511	-0.6404375804	5.5151351351
-0.0	-1.2808751609	5.5151351351
-0.8005469755	-1.2808751609	5.5151351351
-1.6010939511	-1.2808751609	5.5151351351

SCALARS	theta	float 1
LOOKUP_TABLE	default
300.0443380966
300.0443380966
300.0443380966
300.0443380966
300.0443380966
300.0443380966
300.0443380966
300.0443380966
300.0443380966
300.0443380966
300.0443380966
300.0443380966
300.0443380966
300.0443380966
300.0443380966
300.0443380966
300.0443380966
300.0443380966
300.0443380966
300.0443380966
300.0443380966
300.0443380966
300.0443380966
300.0443380966
300.0443380966
300.0443380966
300.0443380966

SCALARS	sig_11	float	1
LOOKUP_TABLE	default
-7e-10
-7e-10
-7e-10
-7e-10
-7e-10
-7e-10
-7e-10
-7e-10
-7e-10
-7e-10
-7e-10
-7e-10
-7e-10
-7e-10
-7e-10
-7e-10
-7e-10
-7e-10
-7e-10
-7e-10
-7e-10
-7e-10
-7e-10
-7e-10
-7e-10
-7e-10
-7e-10

SCALARS	sig_22	float	1
LOOKUP_TABLE	default
-7e-10
-7e-10
-7e-10
-7e-10
-7e-10
-7e-10
-7e-10
-7e-10
-7e-10
-7e-10
-7e-10
-7e-10
-7e-10
-7e-10
-7e-10
-7e-10
-7e-10
-7e-10
-7e-10
-7e-10
-7e-10
-7e-10
-7e-10
-7e-10
-7e-10
-7e-10
-7e-10

SCALARS	sig_33	float	1
LOOKUP_TABLE	default
-12.5001312652
-12.5001312652
-12.5001312652
-12.5001312652
-12.5001312652
-12.5001312652
-12.5001312652
-12.5001312653
-12.5001312653
-12.5001312653
-12.5001312652
-12.5001312652
-12.5001312652
-12.5001312652
-12.5001312652
-12.5001312653
-12.5001312652
-12.5001312652
-12.5001312653
-12.5001312652
-12.5001312652
-12.5001312652
-12.5001312652
-12.5001312652
-12.5001312652
-12.5001312652
-12.5001312653

SCALARS vonMises	float	1
LOOKUP_TABLE	default
8.8389275829
8.8389275829
8.8389275829
8.8389275829
8.8389275829
8.8389275829
8.8389275829
8.8389275829
8.8389275829
8.8389275829
8.8389275829
8.8389275829
8.8389275829
8.8389275829
8.8389275829
8.8389275829
8.8389275829
8.8389275829
8.8389275829
8.8389275829
8.8389275829
8.8389275829
8.8389275829
8.8389275829
8.8389275829
8.8389275829
8.8389275829
