# vtk DataFile Version 2.0
Results
ASCII
DATASET UNSTRUCTURED_GRID
POINTS         27           float
0.0	0.0	0.0	
50.0	0.0	0.0	
100.0	0.0	0.0	
0.0	40.0	0.0	
50.0	40.0	0.0	
100.0	40.0	0.0	
0.0	80.0	0.0	
50.0	80.0	0.0	
100.0	80.0	0.0	
0.0	0.0	70.0	
50.0	0.0	70.0	
100.0	0.0	70.0	
0.0	40.0	70.0	
50.0	40.0	70.0	
100.0	40.0	70.0	
0.0	80.0	70.0	
50.0	80.0	70.0	
100.0	80.0	70.0	
0.0	0.0	140.0	
50.0	0.0	140.0	
100.0	0.0	140.0	
0.0	40.0	140.0	
50.0	40.0	140.0	
100.0	40.0	140.0	
0.0	80.0	140.0	
50.0	80.0	140.0	
100.0	80.0	140.0	

CELLS	8	72
 8	0	1	4	3	9	10	13	12	
 8	1	2	5	4	10	11	14	13	
 8	4	5	8	7	13	14	17	16	
 8	3	4	7	6	12	13	16	15	
 8	9	10	13	12	18	19	22	21	
 8	10	11	14	13	19	20	23	22	
 8	13	14	17	16	22	23	26	25	
 8	12	13	16	15	21	22	25	24	

CELL_TYPES	8
 12
 12
 12
 12
 12
 12
 12
 12

POINT_DATA	27
VECTORS	u 	float 
0.0	0.0	0.0
0.0011143033	0.0	0.0
0.0022286067	0.0	0.0
0.0	0.0008914427	0.0
0.0011143033	0.0008914427	0.0
0.0022286067	0.0008914427	0.0
0.0	0.0017828853	0.0
0.0011143033	0.0017828853	0.0
0.0022286067	0.0017828853	0.0
0.0	0.0	-0.0038560134
0.0011143033	-0.0	-0.0038560134
0.0022286067	0.0	-0.0038560134
0.0	0.0008914427	-0.0038560134
0.0011143033	0.0008914427	-0.0038560134
0.0022286067	0.0008914427	-0.0038560134
0.0	0.0017828853	-0.0038560134
0.0011143033	0.0017828853	-0.0038560134
0.0022286067	0.0017828853	-0.0038560134
-0.0	0.0	-0.0077120267
0.0011143033	-0.0	-0.0077120267
0.0022286067	0.0	-0.0077120267
-0.0	0.0008914427	-0.0077120267
0.0011143033	0.0008914427	-0.0077120267
0.0022286067	0.0008914427	-0.0077120267
0.0	0.0017828853	-0.0077120267
0.0011143033	0.0017828853	-0.0077120267
0.0022286067	0.0017828853	-0.0077120267

VECTORS	v 	float 
0.0	0.0	0.0
0.0022361647	0.0	0.0
0.0044723295	0.0	0.0
0.0	0.0017889318	0.0
0.0022361647	0.0017889318	0.0
0.0044723295	0.0017889318	0.0
0.0	0.0035778636	0.0
0.0022361647	0.0035778636	0.0
0.0044723295	0.0035778636	0.0
0.0	-0.0	-0.0077027027
0.0022361647	-0.0	-0.0077027027
0.0044723295	0.0	-0.0077027027
0.0	0.0017889318	-0.0077027027
0.0022361647	0.0017889318	-0.0077027027
0.0044723295	0.0017889318	-0.0077027027
0.0	0.0035778636	-0.0077027027
0.0022361647	0.0035778636	-0.0077027027
0.0044723295	0.0035778636	-0.0077027027
0.0	-0.0	-0.0154054054
0.0022361647	-0.0	-0.0154054054
0.0044723295	0.0	-0.0154054054
0.0	0.0017889318	-0.0154054054
0.0022361647	0.0017889318	-0.0154054054
0.0044723295	0.0017889318	-0.0154054054
0.0	0.0035778636	-0.0154054054
0.0022361647	0.0035778636	-0.0154054054
0.0044723295	0.0035778636	-0.0154054054

VECTORS	a 	float 
0.0	0.0	0.0
0.8631595882	0.0	0.0
1.7263191763	0.0	0.0
0.0	0.6905276705	0.0
0.8631595882	0.6905276705	0.0
1.7263191763	0.6905276705	0.0
0.0	1.3810553411	0.0
0.8631595882	1.3810553411	0.0
1.7263191763	1.3810553411	0.0
0.0	-0.0	-2.9732432432
0.8631595882	-0.0	-2.9732432432
1.7263191763	0.0	-2.9732432432
0.0	0.6905276705	-2.9732432432
0.8631595882	0.6905276705	-2.9732432432
1.7263191763	0.6905276705	-2.9732432432
0.0	1.3810553411	-2.9732432432
0.8631595882	1.3810553411	-2.9732432432
1.7263191763	1.3810553411	-2.9732432432
0.0	-0.0	-5.9464864865
0.8631595882	-0.0	-5.9464864865
1.7263191763	0.0	-5.9464864865
0.0	0.6905276705	-5.9464864865
0.8631595882	0.6905276705	-5.9464864865
1.7263191763	0.6905276705	-5.9464864865
0.0	1.3810553411	-5.9464864865
0.8631595882	1.3810553411	-5.9464864865
1.7263191763	1.3810553411	-5.9464864865

SCALARS	theta	float 1
LOOKUP_TABLE	default
300.044295256
300.044295256
300.044295256
300.044295256
300.044295256
300.044295256
300.044295256
300.044295256
300.044295256
300.044295256
300.044295256
300.044295256
300.044295256
300.044295256
300.044295256
300.044295256
300.044295256
300.044295256
300.044295256
300.044295256
300.044295256
300.044295256
300.044295256
300.044295256
300.044295256
300.044295256
300.044295256

SCALARS	sig_11	float	1
LOOKUP_TABLE	default
4.2e-09
4.2e-09
4.2e-09
4.2e-09
4.2e-09
4.2e-09
4.2e-09
4.2e-09
4.2e-09
4.2e-09
4.2e-09
4.2e-09
4.2e-09
4.2e-09
4.2e-09
4.2e-09
4.2e-09
4.2e-09
4.2e-09
4.2e-09
4.2e-09
4.2e-09
4.2e-09
4.2e-09
4.2e-09
4.2e-09
4.2e-09

SCALARS	sig_22	float	1
LOOKUP_TABLE	default
4.2e-09
4.2e-09
4.2e-09
4.2e-09
4.2e-09
4.2e-09
4.2e-09
4.2e-09
4.2e-09
4.2e-09
4.2e-09
4.2e-09
4.2e-09
4.2e-09
4.2e-09
4.2e-09
4.2e-09
4.2e-09
4.2e-09
4.2e-09
4.2e-09
4.2e-09
4.2e-09
4.2e-09
4.2e-09
4.2e-09
4.2e-09

SCALARS	sig_33	float	1
LOOKUP_TABLE	default
-12.5001314472
-12.5001314472
-12.5001314472
-12.5001314472
-12.5001314472
-12.5001314472
-12.5001314472
-12.5001314472
-12.5001314472
-12.5001314472
-12.5001314472
-12.5001314472
-12.5001314472
-12.5001314472
-12.5001314472
-12.5001314472
-12.5001314472
-12.5001314472
-12.5001314472
-12.5001314472
-12.5001314472
-12.5001314472
-12.5001314472
-12.5001314472
-12.5001314472
-12.5001314472
-12.5001314472

SCALARS vonMises	float	1
LOOKUP_TABLE	default
8.838927715
8.838927715
8.838927715
8.838927715
8.838927715
8.838927715
8.838927715
8.838927715
8.838927715
8.838927715
8.838927715
8.838927715
8.838927715
8.838927715
8.838927715
8.838927715
8.838927715
8.838927715
8.838927715
8.838927715
8.838927715
8.838927715
8.838927715
8.838927715
8.838927715
8.838927715
8.838927715
