# vtk DataFile Version 2.0
Results
ASCII
DATASET UNSTRUCTURED_GRID
POINTS         27           float
0.0	0.0	0.0	
50.0	0.0	0.0	
100.0	0.0	0.0	
0.0	40.0	0.0	
50.0	40.0	0.0	
100.0	40.0	0.0	
0.0	80.0	0.0	
50.0	80.0	0.0	
100.0	80.0	0.0	
0.0	0.0	70.0	
50.0	0.0	70.0	
100.0	0.0	70.0	
0.0	40.0	70.0	
50.0	40.0	70.0	
100.0	40.0	70.0	
0.0	80.0	70.0	
50.0	80.0	70.0	
100.0	80.0	70.0	
0.0	0.0	140.0	
50.0	0.0	140.0	
100.0	0.0	140.0	
0.0	40.0	140.0	
50.0	40.0	140.0	
100.0	40.0	140.0	
0.0	80.0	140.0	
50.0	80.0	140.0	
100.0	80.0	140.0	

CELLS	8	72
 8	0	1	4	3	9	10	13	12	
 8	1	2	5	4	10	11	14	13	
 8	4	5	8	7	13	14	17	16	
 8	3	4	7	6	12	13	16	15	
 8	9	10	13	12	18	19	22	21	
 8	10	11	14	13	19	20	23	22	
 8	13	14	17	16	22	23	26	25	
 8	12	13	16	15	21	22	25	24	

CELL_TYPES	8
 12
 12
 12
 12
 12
 12
 12
 12

POINT_DATA	27
SCALARS	u1	float 1
LOOKUP_TABLE	default
0.0
-0.011
-0.023
0.0
-0.011
-0.023
0.0
-0.011
-0.023
-0.0
-0.011
-0.023
-0.0
-0.011
-0.023
0.0
-0.011
-0.023
-0.0
-0.011
-0.023
-0.0
-0.011
-0.023
0.0
-0.011
-0.023

SCALARS	u2	float 1
LOOKUP_TABLE	default
0.0
0.0
0.0
-0.009
-0.009
-0.009
-0.018
-0.018
-0.018
-0.0
-0.0
-0.0
-0.009
-0.009
-0.009
-0.018
-0.018
-0.018
-0.0
-0.0
-0.0
-0.009
-0.009
-0.009
-0.018
-0.018
-0.018

SCALARS	u3	float 1
LOOKUP_TABLE	default
0.0
0.0
0.0
0.0
0.0
0.0
0.0
0.0
0.0
0.038
0.038
0.038
0.038
0.038
0.038
0.038
0.038
0.038
0.076
0.076
0.076
0.076
0.076
0.076
0.076
0.076
0.076

SCALARS	u4	float 1
LOOKUP_TABLE	default
299.491
299.491
299.491
299.491
299.491
299.491
299.491
299.491
299.491
299.491
299.491
299.491
299.491
299.491
299.491
299.491
299.491
299.491
299.491
299.491
299.491
299.491
299.491
299.491
299.491
299.491
299.491

VECTORS	u 	float 
0.0	0.0	0.0
-0.0114781011	0.0	0.0
-0.0229562022	0.0	0.0
0.0	-0.0091824809	0.0
-0.0114781011	-0.0091824809	0.0
-0.0229562022	-0.0091824809	0.0
0.0	-0.0183649618	0.0
-0.0114781011	-0.0183649618	0.0
-0.0229562022	-0.0183649618	0.0
-0.0	-0.0	0.0381602779
-0.0114781011	-0.0	0.0381602779
-0.0229562022	-0.0	0.0381602779
-0.0	-0.0091824809	0.0381602779
-0.0114781011	-0.0091824809	0.0381602779
-0.0229562022	-0.0091824809	0.0381602779
0.0	-0.0183649618	0.0381602779
-0.0114781011	-0.0183649618	0.0381602779
-0.0229562022	-0.0183649618	0.0381602779
-0.0	-0.0	0.0763205558
-0.0114781011	-0.0	0.0763205558
-0.0229562022	-0.0	0.0763205558
-0.0	-0.0091824809	0.0763205558
-0.0114781011	-0.0091824809	0.0763205558
-0.0229562022	-0.0091824809	0.0763205558
0.0	-0.0183649618	0.0763205558
-0.0114781011	-0.0183649618	0.0763205558
-0.0229562022	-0.0183649618	0.0763205558

VECTORS	v 	float 
0.0	0.0	0.0
0.0223374891	0.0	0.0
0.0446749782	0.0	0.0
0.0	0.0178699913	0.0
0.0223374891	0.0178699913	0.0
0.0446749782	0.0178699913	0.0
0.0	0.0357399826	0.0
0.0223374891	0.0357399826	0.0
0.0446749782	0.0357399826	0.0
0.0	-0.0	-0.0770189232
0.0223374891	-0.0	-0.0770189232
0.0446749782	-0.0	-0.0770189232
0.0	0.0178699913	-0.0770189232
0.0223374891	0.0178699913	-0.0770189232
0.0446749782	0.0178699913	-0.0770189232
-0.0	0.0357399826	-0.0770189232
0.0223374891	0.0357399826	-0.0770189232
0.0446749782	0.0357399826	-0.0770189232
0.0	-0.0	-0.1540378464
0.0223374891	-0.0	-0.1540378464
0.0446749782	-0.0	-0.1540378464
0.0	0.0178699913	-0.1540378464
0.0223374891	0.0178699913	-0.1540378464
0.0446749782	0.0178699913	-0.1540378464
0.0	0.0357399826	-0.1540378464
0.0223374891	0.0357399826	-0.1540378464
0.0446749782	0.0357399826	-0.1540378464

VECTORS	a 	float 
0.0	0.0	0.0
3.3518865164	0.0	0.0
6.7037730327	0.0	0.0
0.0	2.6815092131	0.0
3.3518865163	2.6815092131	0.0
6.7037730327	2.6815092131	0.0
0.0	5.3630184262	0.0
3.3518865164	5.3630184262	0.0
6.7037730327	5.3630184262	0.0
0.0	-0.0	-11.5514040012
3.3518865164	0.0	-11.5514040012
6.7037730327	-0.0	-11.5514040012
0.0	2.6815092131	-11.5514040012
3.3518865164	2.6815092131	-11.5514040012
6.7037730327	2.6815092131	-11.5514040012
-0.0	5.3630184262	-11.5514040012
3.3518865164	5.3630184262	-11.5514040012
6.7037730327	5.3630184262	-11.5514040012
0.0	-0.0	-23.1028080025
3.3518865164	-0.0	-23.1028080025
6.7037730327	0.0	-23.1028080025
0.0	2.6815092131	-23.1028080025
3.3518865163	2.6815092131	-23.1028080025
6.7037730327	2.6815092131	-23.1028080025
-0.0	5.3630184262	-23.1028080025
3.3518865164	5.3630184262	-23.1028080025
6.7037730327	5.3630184262	-23.1028080025

SCALARS	theta	float 1
LOOKUP_TABLE	default
299.4906956181
299.4906956181
299.4906956181
299.4906956181
299.4906956181
299.4906956181
299.4906956181
299.4906956181
299.4906956181
299.4906956181
299.4906956181
299.4906956181
299.4906956181
299.4906956181
299.4906956181
299.4906956181
299.4906956181
299.4906956181
299.4906956181
299.4906956181
299.4906956181
299.4906956181
299.4906956181
299.4906956181
299.4906956181
299.4906956181
299.4906956181

SCALARS	sig_11	float	1
LOOKUP_TABLE	default
-2.3e-09
-2.3e-09
-2.3e-09
-2.3e-09
-2.3e-09
-2.3e-09
-2.3e-09
-2.3e-09
-2.3e-09
-2.3e-09
-2.3e-09
-2.3e-09
-2.3e-09
-2.3e-09
-2.3e-09
-2.3e-09
-2.3e-09
-2.3e-09
-2.3e-09
-2.4e-09
-2.3e-09
-2.4e-09
-2.3e-09
-2.3e-09
-2.3e-09
-2.3e-09
-2.3e-09

SCALARS	sig_22	float	1
LOOKUP_TABLE	default
-2.4e-09
-2.3e-09
-2.3e-09
-2.4e-09
-2.4e-09
-2.3e-09
-2.3e-09
-2.3e-09
-2.3e-09
-2.3e-09
-2.4e-09
-2.3e-09
-2.4e-09
-2.3e-09
-2.3e-09
-2.3e-09
-2.3e-09
-2.3e-09
-2.3e-09
-2.4e-09
-2.3e-09
-2.4e-09
-2.4e-09
-2.3e-09
-2.3e-09
-2.3e-09
-2.3e-09

SCALARS	sig_33	float	1
LOOKUP_TABLE	default
124.9892528411
124.9892528411
124.9892528411
124.9892528411
124.9892528411
124.9892528411
124.9892528411
124.9892528411
124.9892528411
124.9892528411
124.9892528411
124.9892528411
124.9892528411
124.9892528411
124.9892528411
124.9892528411
124.9892528411
124.9892528411
124.9892528411
124.9892528411
124.9892528411
124.9892528411
124.9892528411
124.9892528411
124.9892528411
124.9892528411
124.9892528411

SCALARS vonMises	float	1
LOOKUP_TABLE	default
88.380748261
88.380748261
88.380748261
88.380748261
88.380748261
88.380748261
88.380748261
88.380748261
88.380748261
88.380748261
88.380748261
88.3807482611
88.380748261
88.380748261
88.380748261
88.380748261
88.380748261
88.380748261
88.3807482611
88.3807482611
88.3807482611
88.3807482611
88.3807482611
88.3807482611
88.380748261
88.3807482611
88.3807482611
