# vtk DataFile Version 2.0
Results
ASCII
DATASET UNSTRUCTURED_GRID
POINTS         27           float
0.0	0.0	0.0	
50.0	0.0	0.0	
100.0	0.0	0.0	
0.0	40.0	0.0	
50.0	40.0	0.0	
100.0	40.0	0.0	
0.0	80.0	0.0	
50.0	80.0	0.0	
100.0	80.0	0.0	
0.0	0.0	70.0	
50.0	0.0	70.0	
100.0	0.0	70.0	
0.0	40.0	70.0	
50.0	40.0	70.0	
100.0	40.0	70.0	
0.0	80.0	70.0	
50.0	80.0	70.0	
100.0	80.0	70.0	
0.0	0.0	140.0	
50.0	0.0	140.0	
100.0	0.0	140.0	
0.0	40.0	140.0	
50.0	40.0	140.0	
100.0	40.0	140.0	
0.0	80.0	140.0	
50.0	80.0	140.0	
100.0	80.0	140.0	

CELLS	8	72
 8	0	1	4	3	9	10	13	12	
 8	1	2	5	4	10	11	14	13	
 8	4	5	8	7	13	14	17	16	
 8	3	4	7	6	12	13	16	15	
 8	9	10	13	12	18	19	22	21	
 8	10	11	14	13	19	20	23	22	
 8	13	14	17	16	22	23	26	25	
 8	12	13	16	15	21	22	25	24	

CELL_TYPES	8
 12
 12
 12
 12
 12
 12
 12
 12

POINT_DATA	27
SCALARS	u1	float 1
LOOKUP_TABLE	default
0.0
-0.011
-0.023
0.0
-0.011
-0.023
0.0
-0.011
-0.023
0.0
-0.011
-0.023
0.0
-0.011
-0.023
0.0
-0.011
-0.023
0.0
-0.011
-0.023
0.0
-0.011
-0.023
0.0
-0.011
-0.023

SCALARS	u2	float 1
LOOKUP_TABLE	default
0.0
0.0
0.0
-0.009
-0.009
-0.009
-0.018
-0.018
-0.018
0.0
0.0
0.0
-0.009
-0.009
-0.009
-0.018
-0.018
-0.018
-0.0
0.0
-0.0
-0.009
-0.009
-0.009
-0.018
-0.018
-0.018

SCALARS	u3	float 1
LOOKUP_TABLE	default
0.0
0.0
0.0
0.0
0.0
0.0
0.0
0.0
0.0
0.038
0.038
0.038
0.038
0.038
0.038
0.038
0.038
0.038
0.077
0.077
0.077
0.077
0.077
0.077
0.077
0.077
0.077

SCALARS	u4	float 1
LOOKUP_TABLE	default
299.509
299.509
299.509
299.509
299.509
299.509
299.509
299.509
299.509
299.509
299.509
299.509
299.509
299.509
299.509
299.509
299.509
299.509
299.509
299.509
299.509
299.509
299.509
299.509
299.509
299.509
299.509

VECTORS	u 	float 
0.0	0.0	0.0
-0.0113868707	0.0	0.0
-0.0227737414	0.0	0.0
0.0	-0.0091094966	0.0
-0.0113868707	-0.0091094966	0.0
-0.0227737414	-0.0091094966	0.0
0.0	-0.0182189931	0.0
-0.0113868707	-0.0182189931	0.0
-0.0227737414	-0.0182189931	0.0
0.0	0.0	0.0382880003
-0.0113868707	0.0	0.0382880003
-0.0227737414	0.0	0.0382880003
0.0	-0.0091094966	0.0382880003
-0.0113868707	-0.0091094966	0.0382880003
-0.0227737414	-0.0091094966	0.0382880003
0.0	-0.0182189931	0.0382880003
-0.0113868707	-0.0182189931	0.0382880003
-0.0227737414	-0.0182189931	0.0382880003
0.0	-0.0	0.0765760006
-0.0113868707	0.0	0.0765760006
-0.0227737414	-0.0	0.0765760006
0.0	-0.0091094966	0.0765760006
-0.0113868707	-0.0091094966	0.0765760006
-0.0227737414	-0.0091094966	0.0765760006
0.0	-0.0182189931	0.0765760006
-0.0113868707	-0.0182189931	0.0765760006
-0.0227737414	-0.0182189931	0.0765760006

VECTORS	v 	float 
0.0	0.0	0.0
0.0223376037	0.0	0.0
0.0446752074	0.0	0.0
0.0	0.0178700829	0.0
0.0223376037	0.0178700829	0.0
0.0446752074	0.0178700829	0.0
0.0	0.0357401659	0.0
0.0223376037	0.0357401659	0.0
0.0446752074	0.0357401659	0.0
0.0	-0.0	-0.0770187624
0.0223376037	-0.0	-0.0770187624
0.0446752074	-0.0	-0.0770187624
-0.0	0.0178700829	-0.0770187624
0.0223376037	0.0178700829	-0.0770187624
0.0446752074	0.0178700829	-0.0770187624
-0.0	0.0357401659	-0.0770187624
0.0223376037	0.0357401659	-0.0770187624
0.0446752074	0.0357401659	-0.0770187624
0.0	-0.0	-0.1540375248
0.0223376037	-0.0	-0.1540375248
0.0446752074	0.0	-0.1540375248
-0.0	0.0178700829	-0.1540375248
0.0223376037	0.0178700829	-0.1540375248
0.0446752074	0.0178700829	-0.1540375248
-0.0	0.0357401659	-0.1540375248
0.0223376037	0.0357401659	-0.1540375248
0.0446752074	0.0357401659	-0.1540375248

VECTORS	a 	float 
0.0	0.0	0.0
2.2793194566	0.0	0.0
4.5586389132	0.0	0.0
0.0	1.8234555653	0.0
2.2793194566	1.8234555653	0.0
4.5586389132	1.8234555653	0.0
0.0	3.6469111305	0.0
2.2793194566	3.6469111305	0.0
4.5586389132	3.6469111305	0.0
0.0	-0.0	-7.8550107082
2.2793194566	0.0	-7.8550107082
4.5586389132	-0.0	-7.8550107082
0.0	1.8234555653	-7.8550107082
2.2793194566	1.8234555653	-7.8550107082
4.5586389132	1.8234555653	-7.8550107082
-0.0	3.6469111305	-7.8550107082
2.2793194566	3.6469111305	-7.8550107082
4.5586389132	3.6469111305	-7.8550107082
0.0	-0.0	-15.7100214164
2.2793194566	-0.0	-15.7100214164
4.5586389132	0.0	-15.7100214164
0.0	1.8234555653	-15.7100214164
2.2793194566	1.8234555653	-15.7100214164
4.5586389132	1.8234555653	-15.7100214164
0.0	3.6469111305	-15.7100214164
2.2793194566	3.6469111305	-15.7100214164
4.5586389132	3.6469111305	-15.7100214164

SCALARS	theta	float 1
LOOKUP_TABLE	default
299.5089418664
299.5089418664
299.5089418664
299.5089418664
299.5089418664
299.5089418664
299.5089418664
299.5089418664
299.5089418664
299.5089418664
299.5089418664
299.5089418664
299.5089418664
299.5089418664
299.5089418664
299.5089418664
299.5089418664
299.5089418664
299.5089418664
299.5089418664
299.5089418664
299.5089418664
299.5089418664
299.5089418664
299.5089418664
299.5089418664
299.5089418664

SCALARS	sig_11	float	1
LOOKUP_TABLE	default
-2.3e-09
-2.3e-09
-2.3e-09
-2.3e-09
-2.3e-09
-2.3e-09
-2.3e-09
-2.3e-09
-2.3e-09
-2.3e-09
-2.3e-09
-2.3e-09
-2.3e-09
-2.3e-09
-2.3e-09
-2.3e-09
-2.3e-09
-2.3e-09
-2.3e-09
-2.3e-09
-2.3e-09
-2.3e-09
-2.3e-09
-2.3e-09
-2.3e-09
-2.3e-09
-2.3e-09

SCALARS	sig_22	float	1
LOOKUP_TABLE	default
-2.3e-09
-2.3e-09
-2.3e-09
-2.3e-09
-2.3e-09
-2.3e-09
-2.3e-09
-2.3e-09
-2.3e-09
-2.3e-09
-2.3e-09
-2.3e-09
-2.3e-09
-2.3e-09
-2.3e-09
-2.3e-09
-2.3e-09
-2.3e-09
-2.3e-09
-2.3e-09
-2.3e-09
-2.3e-09
-2.3e-09
-2.3e-09
-2.3e-09
-2.3e-09
-2.3e-09

SCALARS	sig_33	float	1
LOOKUP_TABLE	default
124.9885689417
124.9885689417
124.9885689417
124.9885689417
124.9885689417
124.9885689417
124.9885689417
124.9885689417
124.9885689417
124.9885689417
124.9885689417
124.9885689417
124.9885689417
124.9885689417
124.9885689417
124.9885689417
124.9885689417
124.9885689417
124.9885689417
124.9885689417
124.9885689417
124.9885689417
124.9885689417
124.9885689417
124.9885689417
124.9885689417
124.9885689417

SCALARS vonMises	float	1
LOOKUP_TABLE	default
88.3802646711
88.3802646711
88.3802646711
88.3802646711
88.3802646711
88.3802646711
88.3802646711
88.3802646711
88.3802646711
88.3802646711
88.3802646711
88.3802646711
88.3802646711
88.3802646711
88.3802646711
88.3802646711
88.3802646711
88.3802646711
88.3802646711
88.3802646711
88.3802646711
88.3802646711
88.3802646711
88.3802646711
88.3802646711
88.3802646711
88.3802646711
