# vtk DataFile Version 2.0
Results
ASCII
DATASET UNSTRUCTURED_GRID
POINTS         27           float
0.0	0.0	0.0	
50.0	0.0	0.0	
100.0	0.0	0.0	
0.0	40.0	0.0	
50.0	40.0	0.0	
100.0	40.0	0.0	
0.0	80.0	0.0	
50.0	80.0	0.0	
100.0	80.0	0.0	
0.0	0.0	70.0	
50.0	0.0	70.0	
100.0	0.0	70.0	
0.0	40.0	70.0	
50.0	40.0	70.0	
100.0	40.0	70.0	
0.0	80.0	70.0	
50.0	80.0	70.0	
100.0	80.0	70.0	
0.0	0.0	140.0	
50.0	0.0	140.0	
100.0	0.0	140.0	
0.0	40.0	140.0	
50.0	40.0	140.0	
100.0	40.0	140.0	
0.0	80.0	140.0	
50.0	80.0	140.0	
100.0	80.0	140.0	

CELLS	8	72
 8	0	1	4	3	9	10	13	12	
 8	1	2	5	4	10	11	14	13	
 8	4	5	8	7	13	14	17	16	
 8	3	4	7	6	12	13	16	15	
 8	9	10	13	12	18	19	22	21	
 8	10	11	14	13	19	20	23	22	
 8	13	14	17	16	22	23	26	25	
 8	12	13	16	15	21	22	25	24	

CELL_TYPES	8
 12
 12
 12
 12
 12
 12
 12
 12

POINT_DATA	27
SCALARS	u1	float 1
LOOKUP_TABLE	default
0.0
-0.011
-0.022
0.0
-0.011
-0.022
0.0
-0.011
-0.022
-0.0
-0.011
-0.022
-0.0
-0.011
-0.022
-0.0
-0.011
-0.022
-0.0
-0.011
-0.022
-0.0
-0.011
-0.022
-0.0
-0.011
-0.022

SCALARS	u2	float 1
LOOKUP_TABLE	default
0.0
0.0
0.0
-0.009
-0.009
-0.009
-0.018
-0.018
-0.018
0.0
0.0
0.0
-0.009
-0.009
-0.009
-0.018
-0.018
-0.018
0.0
0.0
0.0
-0.009
-0.009
-0.009
-0.018
-0.018
-0.018

SCALARS	u3	float 1
LOOKUP_TABLE	default
0.0
0.0
0.0
0.0
0.0
0.0
0.0
0.0
0.0
0.038
0.038
0.038
0.038
0.038
0.038
0.038
0.038
0.038
0.077
0.077
0.077
0.077
0.077
0.077
0.077
0.077
0.077

SCALARS	u4	float 1
LOOKUP_TABLE	default
299.538
299.538
299.538
299.538
299.538
299.538
299.538
299.538
299.538
299.538
299.538
299.538
299.538
299.538
299.538
299.538
299.538
299.538
299.538
299.538
299.538
299.538
299.538
299.538
299.538
299.538
299.538

VECTORS	u 	float 
0.0	0.0	0.0
-0.011242413	0.0	0.0
-0.022484826	0.0	0.0
0.0	-0.0089939304	0.0
-0.011242413	-0.0089939304	0.0
-0.022484826	-0.0089939304	0.0
0.0	-0.0179878608	0.0
-0.011242413	-0.0179878608	0.0
-0.022484826	-0.0179878608	0.0
-0.0	0.0	0.0384902408
-0.011242413	0.0	0.0384902408
-0.022484826	0.0	0.0384902408
-0.0	-0.0089939304	0.0384902408
-0.011242413	-0.0089939304	0.0384902408
-0.022484826	-0.0089939304	0.0384902408
-0.0	-0.0179878608	0.0384902408
-0.011242413	-0.0179878608	0.0384902408
-0.022484826	-0.0179878608	0.0384902408
-0.0	0.0	0.0769804816
-0.011242413	0.0	0.0769804816
-0.022484826	0.0	0.0769804816
-0.0	-0.0089939304	0.0769804816
-0.011242413	-0.0089939304	0.0769804816
-0.022484826	-0.0089939304	0.0769804816
-0.0	-0.0179878608	0.0769804816
-0.011242413	-0.0179878608	0.0769804816
-0.022484826	-0.0179878608	0.0769804816

VECTORS	v 	float 
0.0	0.0	0.0
-0.0223529872	0.0	0.0
-0.0447059743	0.0	0.0
0.0	-0.0178823897	0.0
-0.0223529872	-0.0178823897	0.0
-0.0447059743	-0.0178823897	0.0
0.0	-0.0357647795	0.0
-0.0223529872	-0.0357647795	0.0
-0.0447059743	-0.0357647795	0.0
-0.0	-0.0	0.0769972084
-0.0223529872	-0.0	0.0769972084
-0.0447059743	-0.0	0.0769972084
-0.0	-0.0178823897	0.0769972084
-0.0223529872	-0.0178823897	0.0769972084
-0.0447059743	-0.0178823897	0.0769972084
-0.0	-0.0357647795	0.0769972084
-0.0223529872	-0.0357647795	0.0769972084
-0.0447059743	-0.0357647795	0.0769972084
-0.0	-0.0	0.1539944169
-0.0223529872	-0.0	0.1539944169
-0.0447059743	-0.0	0.1539944169
-0.0	-0.0178823897	0.1539944169
-0.0223529872	-0.0178823897	0.1539944169
-0.0447059743	-0.0178823897	0.1539944169
-0.0	-0.0357647795	0.1539944169
-0.0223529872	-0.0357647795	0.1539944169
-0.0447059743	-0.0357647795	0.1539944169

VECTORS	a 	float 
0.0	0.0	0.0
-0.5810770151	0.0	0.0
-1.1621540302	0.0	0.0
0.0	-0.4648616121	0.0
-0.5810770151	-0.4648616121	0.0
-1.1621540302	-0.4648616121	0.0
0.0	-0.9297232242	0.0
-0.5810770151	-0.9297232242	0.0
-1.1621540302	-0.9297232242	0.0
-0.0	0.0	2.0024038013
-0.5810770151	-0.0	2.0024038013
-1.1621540302	-0.0	2.0024038013
-0.0	-0.4648616121	2.0024038013
-0.5810770151	-0.4648616121	2.0024038013
-1.1621540302	-0.4648616121	2.0024038013
-0.0	-0.9297232242	2.0024038013
-0.5810770151	-0.9297232242	2.0024038013
-1.1621540302	-0.9297232242	2.0024038013
-0.0	0.0	4.0048076026
-0.5810770151	-0.0	4.0048076026
-1.1621540302	-0.0	4.0048076026
-0.0	-0.4648616121	4.0048076026
-0.5810770151	-0.4648616121	4.0048076026
-1.1621540302	-0.4648616121	4.0048076026
-0.0	-0.9297232242	4.0048076026
-0.5810770151	-0.9297232242	4.0048076026
-1.1621540302	-0.9297232242	4.0048076026

SCALARS	theta	float 1
LOOKUP_TABLE	default
299.5378335089
299.5378335089
299.5378335089
299.5378335089
299.5378335089
299.5378335089
299.5378335089
299.5378335089
299.5378335089
299.5378335089
299.5378335089
299.5378335089
299.5378335089
299.5378335089
299.5378335089
299.5378335089
299.5378335089
299.5378335089
299.5378335089
299.5378335089
299.5378335089
299.5378335089
299.5378335089
299.5378335089
299.5378335089
299.5378335089
299.5378335089

SCALARS	sig_11	float	1
LOOKUP_TABLE	default
-2.3e-09
-2.3e-09
-2.3e-09
-2.3e-09
-2.3e-09
-2.3e-09
-2.3e-09
-2.3e-09
-2.3e-09
-2.3e-09
-2.3e-09
-2.3e-09
-2.3e-09
-2.3e-09
-2.3e-09
-2.3e-09
-2.3e-09
-2.3e-09
-2.3e-09
-2.3e-09
-2.3e-09
-2.3e-09
-2.3e-09
-2.3e-09
-2.3e-09
-2.3e-09
-2.3e-09

SCALARS	sig_22	float	1
LOOKUP_TABLE	default
-2.3e-09
-2.3e-09
-2.3e-09
-2.3e-09
-2.3e-09
-2.3e-09
-2.3e-09
-2.3e-09
-2.3e-09
-2.3e-09
-2.3e-09
-2.3e-09
-2.3e-09
-2.3e-09
-2.3e-09
-2.3e-09
-2.3e-09
-2.3e-09
-2.3e-09
-2.3e-09
-2.3e-09
-2.3e-09
-2.3e-09
-2.3e-09
-2.3e-09
-2.3e-09
-2.3e-09

SCALARS	sig_33	float	1
LOOKUP_TABLE	default
124.9874861173
124.9874861173
124.9874861173
124.9874861173
124.9874861173
124.9874861173
124.9874861173
124.9874861173
124.9874861173
124.9874861173
124.9874861173
124.9874861173
124.9874861173
124.9874861173
124.9874861173
124.9874861173
124.9874861173
124.9874861173
124.9874861173
124.9874861172
124.9874861173
124.9874861173
124.9874861172
124.9874861173
124.9874861173
124.9874861172
124.9874861173

SCALARS vonMises	float	1
LOOKUP_TABLE	default
88.3794989986
88.3794989986
88.3794989986
88.3794989986
88.3794989986
88.3794989986
88.3794989986
88.3794989986
88.3794989986
88.3794989986
88.3794989986
88.3794989986
88.3794989986
88.3794989986
88.3794989986
88.3794989986
88.3794989986
88.3794989986
88.3794989986
88.3794989986
88.3794989986
88.3794989986
88.3794989986
88.3794989986
88.3794989986
88.3794989986
88.3794989986
