# vtk DataFile Version 2.0
Results
ASCII
DATASET UNSTRUCTURED_GRID
POINTS         27           float
0.0	0.0	0.0	
50.0	0.0	0.0	
100.0	0.0	0.0	
0.0	40.0	0.0	
50.0	40.0	0.0	
100.0	40.0	0.0	
0.0	80.0	0.0	
50.0	80.0	0.0	
100.0	80.0	0.0	
0.0	0.0	70.0	
50.0	0.0	70.0	
100.0	0.0	70.0	
0.0	40.0	70.0	
50.0	40.0	70.0	
100.0	40.0	70.0	
0.0	80.0	70.0	
50.0	80.0	70.0	
100.0	80.0	70.0	
0.0	0.0	140.0	
50.0	0.0	140.0	
100.0	0.0	140.0	
0.0	40.0	140.0	
50.0	40.0	140.0	
100.0	40.0	140.0	
0.0	80.0	140.0	
50.0	80.0	140.0	
100.0	80.0	140.0	

CELLS	8	72
 8	0	1	4	3	9	10	13	12	
 8	1	2	5	4	10	11	14	13	
 8	4	5	8	7	13	14	17	16	
 8	3	4	7	6	12	13	16	15	
 8	9	10	13	12	18	19	22	21	
 8	10	11	14	13	19	20	23	22	
 8	13	14	17	16	22	23	26	25	
 8	12	13	16	15	21	22	25	24	

CELL_TYPES	8
 12
 12
 12
 12
 12
 12
 12
 12

POINT_DATA	27
SCALARS	u1	float 1
LOOKUP_TABLE	default
0.0
-0.011
-0.023
0.0
-0.011
-0.023
0.0
-0.011
-0.023
0.0
-0.011
-0.023
0.0
-0.011
-0.023
0.0
-0.011
-0.023
0.0
-0.011
-0.023
0.0
-0.011
-0.023
0.0
-0.011
-0.023

SCALARS	u2	float 1
LOOKUP_TABLE	default
0.0
0.0
0.0
-0.009
-0.009
-0.009
-0.018
-0.018
-0.018
0.0
-0.0
-0.0
-0.009
-0.009
-0.009
-0.018
-0.018
-0.018
0.0
0.0
-0.0
-0.009
-0.009
-0.009
-0.018
-0.018
-0.018

SCALARS	u3	float 1
LOOKUP_TABLE	default
0.0
0.0
0.0
0.0
0.0
0.0
0.0
0.0
0.0
0.038
0.038
0.038
0.038
0.038
0.038
0.038
0.038
0.038
0.076
0.076
0.076
0.076
0.076
0.076
0.076
0.076
0.076

SCALARS	u4	float 1
LOOKUP_TABLE	default
299.5
299.5
299.5
299.5
299.5
299.5
299.5
299.5
299.5
299.5
299.5
299.5
299.5
299.5
299.5
299.5
299.5
299.5
299.5
299.5
299.5
299.5
299.5
299.5
299.5
299.5
299.5

VECTORS	u 	float 
0.0	0.0	0.0
-0.0114324862	0.0	0.0
-0.0228649724	0.0	0.0
0.0	-0.0091459889	0.0
-0.0114324862	-0.0091459889	0.0
-0.0228649724	-0.0091459889	0.0
0.0	-0.0182919779	0.0
-0.0114324862	-0.0182919779	0.0
-0.0228649724	-0.0182919779	0.0
0.0	0.0	0.0382241387
-0.0114324862	-0.0	0.0382241387
-0.0228649724	-0.0	0.0382241387
0.0	-0.0091459889	0.0382241387
-0.0114324862	-0.0091459889	0.0382241387
-0.0228649724	-0.0091459889	0.0382241387
0.0	-0.0182919779	0.0382241387
-0.0114324862	-0.0182919779	0.0382241387
-0.0228649724	-0.0182919779	0.0382241387
0.0	0.0	0.0764482774
-0.0114324862	0.0	0.0764482774
-0.0228649724	-0.0	0.0764482774
0.0	-0.0091459889	0.0764482774
-0.0114324862	-0.0091459889	0.0764482774
-0.0228649724	-0.0091459889	0.0764482774
0.0	-0.0182919779	0.0764482774
-0.0114324862	-0.0182919779	0.0764482774
-0.0228649724	-0.0182919779	0.0764482774

VECTORS	v 	float 
0.0	0.0	0.0
0.0223375464	0.0	0.0
0.0446750928	0.0	0.0
0.0	0.0178700371	0.0
0.0223375464	0.0178700371	0.0
0.0446750928	0.0178700371	0.0
0.0	0.0357400742	0.0
0.0223375464	0.0357400742	0.0
0.0446750928	0.0357400742	0.0
0.0	-0.0	-0.0770188428
0.0223375464	0.0	-0.0770188428
0.0446750928	0.0	-0.0770188428
0.0	0.0178700371	-0.0770188428
0.0223375464	0.0178700371	-0.0770188428
0.0446750928	0.0178700371	-0.0770188428
-0.0	0.0357400742	-0.0770188428
0.0223375464	0.0357400742	-0.0770188428
0.0446750928	0.0357400742	-0.0770188428
0.0	-0.0	-0.1540376856
0.0223375464	-0.0	-0.1540376856
0.0446750928	0.0	-0.1540376856
0.0	0.0178700371	-0.1540376856
0.0223375464	0.0178700371	-0.1540376856
0.0446750928	0.0178700371	-0.1540376856
-0.0	0.0357400742	-0.1540376856
0.0223375464	0.0357400742	-0.1540376856
0.0446750928	0.0357400742	-0.1540376856

VECTORS	a 	float 
0.0	0.0	0.0
2.8156036749	0.0	0.0
5.6312073498	0.0	0.0
0.0	2.2524829399	0.0
2.8156036749	2.2524829399	0.0
5.6312073498	2.2524829399	0.0
0.0	4.5049658799	0.0
2.8156036749	4.5049658799	0.0
5.6312073498	4.5049658799	0.0
0.0	-0.0	-9.7032063886
2.8156036749	0.0	-9.7032063886
5.6312073498	-0.0	-9.7032063886
0.0	2.2524829399	-9.7032063886
2.8156036749	2.2524829399	-9.7032063886
5.6312073498	2.2524829399	-9.7032063886
-0.0	4.5049658799	-9.7032063886
2.8156036749	4.5049658799	-9.7032063886
5.6312073498	4.5049658799	-9.7032063886
0.0	-0.0	-19.4064127771
2.8156036749	-0.0	-19.4064127771
5.6312073498	0.0	-19.4064127771
0.0	2.2524829399	-19.4064127771
2.8156036749	2.2524829399	-19.4064127771
5.6312073498	2.2524829399	-19.4064127771
-0.0	4.5049658799	-19.4064127771
2.8156036749	4.5049658799	-19.4064127771
5.6312073498	4.5049658799	-19.4064127771

SCALARS	theta	float 1
LOOKUP_TABLE	default
299.4998186974
299.4998186974
299.4998186974
299.4998186974
299.4998186974
299.4998186974
299.4998186974
299.4998186974
299.4998186974
299.4998186974
299.4998186974
299.4998186974
299.4998186974
299.4998186974
299.4998186974
299.4998186974
299.4998186974
299.4998186974
299.4998186974
299.4998186974
299.4998186974
299.4998186974
299.4998186974
299.4998186974
299.4998186974
299.4998186974
299.4998186974

SCALARS	sig_11	float	1
LOOKUP_TABLE	default
-2.3e-09
-2.3e-09
-2.3e-09
-2.3e-09
-2.3e-09
-2.3e-09
-2.3e-09
-2.3e-09
-2.3e-09
-2.3e-09
-2.3e-09
-2.3e-09
-2.3e-09
-2.3e-09
-2.3e-09
-2.3e-09
-2.3e-09
-2.3e-09
-2.3e-09
-2.3e-09
-2.3e-09
-2.3e-09
-2.3e-09
-2.3e-09
-2.3e-09
-2.3e-09
-2.3e-09

SCALARS	sig_22	float	1
LOOKUP_TABLE	default
-2.3e-09
-2.3e-09
-2.3e-09
-2.3e-09
-2.3e-09
-2.3e-09
-2.3e-09
-2.3e-09
-2.3e-09
-2.3e-09
-2.3e-09
-2.3e-09
-2.3e-09
-2.3e-09
-2.3e-09
-2.3e-09
-2.3e-09
-2.3e-09
-2.3e-09
-2.3e-09
-2.3e-09
-2.3e-09
-2.3e-09
-2.3e-09
-2.3e-09
-2.3e-09
-2.3e-09

SCALARS	sig_33	float	1
LOOKUP_TABLE	default
124.9889108927
124.9889108927
124.9889108927
124.9889108927
124.9889108927
124.9889108927
124.9889108927
124.9889108927
124.9889108927
124.9889108927
124.9889108927
124.9889108927
124.9889108927
124.9889108927
124.9889108927
124.9889108927
124.9889108927
124.9889108927
124.9889108927
124.9889108927
124.9889108927
124.9889108927
124.9889108927
124.9889108927
124.9889108927
124.9889108927
124.9889108927

SCALARS vonMises	float	1
LOOKUP_TABLE	default
88.380506467
88.380506467
88.380506467
88.380506467
88.380506467
88.380506467
88.380506467
88.380506467
88.380506467
88.380506467
88.380506467
88.380506467
88.380506467
88.380506467
88.380506467
88.380506467
88.380506467
88.380506467
88.380506467
88.380506467
88.380506467
88.380506467
88.380506467
88.380506467
88.380506467
88.380506467
88.380506467
