# vtk DataFile Version 2.0
Results
ASCII
DATASET UNSTRUCTURED_GRID
POINTS         27           float
0.0	0.0	0.0	
50.0	0.0	0.0	
100.0	0.0	0.0	
0.0	40.0	0.0	
50.0	40.0	0.0	
100.0	40.0	0.0	
0.0	80.0	0.0	
50.0	80.0	0.0	
100.0	80.0	0.0	
0.0	0.0	70.0	
50.0	0.0	70.0	
100.0	0.0	70.0	
0.0	40.0	70.0	
50.0	40.0	70.0	
100.0	40.0	70.0	
0.0	80.0	70.0	
50.0	80.0	70.0	
100.0	80.0	70.0	
0.0	0.0	140.0	
50.0	0.0	140.0	
100.0	0.0	140.0	
0.0	40.0	140.0	
50.0	40.0	140.0	
100.0	40.0	140.0	
0.0	80.0	140.0	
50.0	80.0	140.0	
100.0	80.0	140.0	

CELLS	8	72
 8	0	1	4	3	9	10	13	12	
 8	1	2	5	4	10	11	14	13	
 8	4	5	8	7	13	14	17	16	
 8	3	4	7	6	12	13	16	15	
 8	9	10	13	12	18	19	22	21	
 8	10	11	14	13	19	20	23	22	
 8	13	14	17	16	22	23	26	25	
 8	12	13	16	15	21	22	25	24	

CELL_TYPES	8
 12
 12
 12
 12
 12
 12
 12
 12

POINT_DATA	27
SCALARS	u1	float 1
LOOKUP_TABLE	default
0.0
-0.012
-0.023
0.0
-0.012
-0.023
0.0
-0.012
-0.023
-0.0
-0.012
-0.023
-0.0
-0.012
-0.023
-0.0
-0.012
-0.023
-0.0
-0.012
-0.023
-0.0
-0.012
-0.023
-0.0
-0.012
-0.023

SCALARS	u2	float 1
LOOKUP_TABLE	default
0.0
0.0
0.0
-0.009
-0.009
-0.009
-0.018
-0.018
-0.018
0.0
0.0
0.0
-0.009
-0.009
-0.009
-0.018
-0.018
-0.018
0.0
0.0
0.0
-0.009
-0.009
-0.009
-0.018
-0.018
-0.018

SCALARS	u3	float 1
LOOKUP_TABLE	default
0.0
0.0
0.0
0.0
0.0
0.0
0.0
0.0
0.0
0.038
0.038
0.038
0.038
0.038
0.038
0.038
0.038
0.038
0.076
0.076
0.076
0.076
0.076
0.076
0.076
0.076
0.076

SCALARS	u4	float 1
LOOKUP_TABLE	default
299.475
299.475
299.475
299.475
299.475
299.475
299.475
299.475
299.475
299.475
299.475
299.475
299.475
299.475
299.475
299.475
299.475
299.475
299.475
299.475
299.475
299.475
299.475
299.475
299.475
299.475
299.475

VECTORS	u 	float 
0.0	0.0	0.0
-0.0115541248	0.0	0.0
-0.0231082496	0.0	0.0
0.0	-0.0092432998	0.0
-0.0115541248	-0.0092432998	0.0
-0.0231082496	-0.0092432998	0.0
0.0	-0.0184865997	0.0
-0.0115541248	-0.0184865997	0.0
-0.0231082496	-0.0184865997	0.0
-0.0	0.0	0.0380538449
-0.0115541248	0.0	0.0380538449
-0.0231082496	0.0	0.0380538449
-0.0	-0.0092432998	0.0380538449
-0.0115541248	-0.0092432998	0.0380538449
-0.0231082496	-0.0092432998	0.0380538449
-0.0	-0.0184865997	0.0380538449
-0.0115541248	-0.0184865997	0.0380538449
-0.0231082496	-0.0184865997	0.0380538449
-0.0	0.0	0.0761076898
-0.0115541248	0.0	0.0761076898
-0.0231082496	0.0	0.0761076898
-0.0	-0.0092432998	0.0761076898
-0.0115541248	-0.0092432998	0.0761076898
-0.0231082496	-0.0092432998	0.0761076898
-0.0	-0.0184865997	0.0761076898
-0.0115541248	-0.0184865997	0.0761076898
-0.0231082496	-0.0184865997	0.0761076898

VECTORS	v 	float 
0.0	0.0	0.0
0.0223373936	0.0	0.0
0.0446747873	0.0	0.0
0.0	0.0178699149	0.0
0.0223373936	0.0178699149	0.0
0.0446747873	0.0178699149	0.0
0.0	0.0357398298	0.0
0.0223373936	0.0357398298	0.0
0.0446747873	0.0357398298	0.0
0.0	-0.0	-0.0770190572
0.0223373936	0.0	-0.0770190572
0.0446747873	-0.0	-0.0770190572
-0.0	0.0178699149	-0.0770190572
0.0223373936	0.0178699149	-0.0770190572
0.0446747873	0.0178699149	-0.0770190572
-0.0	0.0357398298	-0.0770190572
0.0223373936	0.0357398298	-0.0770190572
0.0446747873	0.0357398298	-0.0770190572
0.0	-0.0	-0.1540381144
0.0223373936	-0.0	-0.1540381144
0.0446747873	0.0	-0.1540381144
0.0	0.0178699149	-0.1540381144
0.0223373936	0.0178699149	-0.1540381144
0.0446747873	0.0178699149	-0.1540381144
0.0	0.0357398298	-0.1540381144
0.0223373936	0.0357398298	-0.1540381144
0.0446747873	0.0357398298	-0.1540381144

VECTORS	a 	float 
0.0	0.0	0.0
4.2456881922	0.0	0.0
8.4913763844	0.0	0.0
0.0	3.3965505537	0.0
4.2456881922	3.3965505537	0.0
8.4913763844	3.3965505537	0.0
0.0	6.7931011075	0.0
4.2456881922	6.7931011075	0.0
8.4913763844	6.7931011075	0.0
0.0	-0.0	-14.6317376499
4.2456881922	0.0	-14.6317376499
8.4913763844	-0.0	-14.6317376499
-0.0	3.3965505537	-14.6317376499
4.2456881922	3.3965505537	-14.6317376499
8.4913763844	3.3965505537	-14.6317376499
-0.0	6.7931011075	-14.6317376499
4.2456881922	6.7931011075	-14.6317376499
8.4913763844	6.7931011075	-14.6317376499
0.0	-0.0	-29.2634752999
4.2456881922	-0.0	-29.2634752999
8.4913763844	0.0	-29.2634752999
0.0	3.3965505537	-29.2634752999
4.2456881922	3.3965505537	-29.2634752999
8.4913763844	3.3965505537	-29.2634752999
-0.0	6.7931011075	-29.2634752999
4.2456881922	6.7931011075	-29.2634752999
8.4913763844	6.7931011075	-29.2634752999

SCALARS	theta	float 1
LOOKUP_TABLE	default
299.4754906853
299.4754906853
299.4754906853
299.4754906853
299.4754906853
299.4754906853
299.4754906853
299.4754906853
299.4754906853
299.4754906853
299.4754906853
299.4754906853
299.4754906853
299.4754906853
299.4754906853
299.4754906853
299.4754906853
299.4754906853
299.4754906853
299.4754906853
299.4754906853
299.4754906853
299.4754906853
299.4754906853
299.4754906853
299.4754906853
299.4754906853

SCALARS	sig_11	float	1
LOOKUP_TABLE	default
-2.3e-09
-2.3e-09
-2.3e-09
-2.3e-09
-2.3e-09
-2.3e-09
-2.3e-09
-2.3e-09
-2.3e-09
-2.3e-09
-2.3e-09
-2.3e-09
-2.3e-09
-2.3e-09
-2.3e-09
-2.3e-09
-2.3e-09
-2.3e-09
-2.3e-09
-2.3e-09
-2.3e-09
-2.3e-09
-2.3e-09
-2.3e-09
-2.3e-09
-2.3e-09
-2.3e-09

SCALARS	sig_22	float	1
LOOKUP_TABLE	default
-2.3e-09
-2.3e-09
-2.3e-09
-2.3e-09
-2.3e-09
-2.3e-09
-2.3e-09
-2.3e-09
-2.3e-09
-2.3e-09
-2.3e-09
-2.3e-09
-2.3e-09
-2.3e-09
-2.3e-09
-2.3e-09
-2.3e-09
-2.3e-09
-2.3e-09
-2.3e-09
-2.3e-09
-2.3e-09
-2.3e-09
-2.3e-09
-2.3e-09
-2.3e-09
-2.3e-09

SCALARS	sig_33	float	1
LOOKUP_TABLE	default
124.9898227492
124.9898227492
124.9898227492
124.9898227492
124.9898227492
124.9898227492
124.9898227492
124.9898227492
124.9898227492
124.9898227492
124.9898227492
124.9898227492
124.9898227492
124.9898227492
124.9898227492
124.9898227492
124.9898227492
124.9898227492
124.9898227492
124.9898227492
124.9898227492
124.9898227492
124.9898227492
124.9898227492
124.9898227492
124.9898227492
124.9898227492

SCALARS vonMises	float	1
LOOKUP_TABLE	default
88.3811512469
88.3811512469
88.3811512469
88.3811512469
88.3811512469
88.3811512469
88.3811512469
88.3811512469
88.3811512469
88.3811512469
88.3811512469
88.3811512469
88.3811512469
88.3811512469
88.3811512469
88.3811512469
88.3811512469
88.3811512469
88.3811512469
88.3811512469
88.3811512469
88.3811512469
88.3811512469
88.3811512469
88.3811512469
88.3811512469
88.3811512469
