# vtk DataFile Version 2.0
Results
ASCII
DATASET UNSTRUCTURED_GRID
POINTS         27           float
0.0	0.0	0.0	
50.0	0.0	0.0	
100.0	0.0	0.0	
0.0	40.0	0.0	
50.0	40.0	0.0	
100.0	40.0	0.0	
0.0	80.0	0.0	
50.0	80.0	0.0	
100.0	80.0	0.0	
0.0	0.0	70.0	
50.0	0.0	70.0	
100.0	0.0	70.0	
0.0	40.0	70.0	
50.0	40.0	70.0	
100.0	40.0	70.0	
0.0	80.0	70.0	
50.0	80.0	70.0	
100.0	80.0	70.0	
0.0	0.0	140.0	
50.0	0.0	140.0	
100.0	0.0	140.0	
0.0	40.0	140.0	
50.0	40.0	140.0	
100.0	40.0	140.0	
0.0	80.0	140.0	
50.0	80.0	140.0	
100.0	80.0	140.0	

CELLS	8	72
 8	0	1	4	3	9	10	13	12	
 8	1	2	5	4	10	11	14	13	
 8	4	5	8	7	13	14	17	16	
 8	3	4	7	6	12	13	16	15	
 8	9	10	13	12	18	19	22	21	
 8	10	11	14	13	19	20	23	22	
 8	13	14	17	16	22	23	26	25	
 8	12	13	16	15	21	22	25	24	

CELL_TYPES	8
 12
 12
 12
 12
 12
 12
 12
 12

POINT_DATA	27
SCALARS	u1	float 1
LOOKUP_TABLE	default
0.0
-0.001
-0.002
0.0
-0.001
-0.002
0.0
-0.001
-0.002
0.0
-0.001
-0.002
0.0
-0.001
-0.002
0.0
-0.001
-0.002
0.0
-0.001
-0.002
0.0
-0.001
-0.002
0.0
-0.001
-0.002

SCALARS	u2	float 1
LOOKUP_TABLE	default
0.0
0.0
0.0
-0.001
-0.001
-0.001
-0.001
-0.001
-0.001
0.0
0.0
-0.0
-0.001
-0.001
-0.001
-0.001
-0.001
-0.001
-0.0
-0.0
0.0
-0.001
-0.001
-0.001
-0.001
-0.001
-0.001

SCALARS	u3	float 1
LOOKUP_TABLE	default
0.0
0.0
0.0
0.0
0.0
0.0
0.0
0.0
0.0
-0.001
-0.001
-0.001
-0.001
-0.001
-0.001
-0.001
-0.001
-0.001
-0.002
-0.002
-0.002
-0.002
-0.002
-0.002
-0.002
-0.002
-0.002

SCALARS	u4	float 1
LOOKUP_TABLE	default
299.846
299.846
299.846
299.846
299.846
299.846
299.846
299.846
299.846
299.846
299.846
299.846
299.846
299.846
299.846
299.846
299.846
299.846
299.846
299.846
299.846
299.846
299.846
299.846
299.846
299.846
299.846

VECTORS	u 	float 
0.0	0.0	0.0
-0.0007683524	0.0	0.0
-0.0015367048	0.0	0.0
0.0	-0.0006146819	0.0
-0.0007683524	-0.0006146819	0.0
-0.0015367048	-0.0006146819	0.0
0.0	-0.0012293639	0.0
-0.0007683524	-0.0012293639	0.0
-0.0015367048	-0.0012293639	0.0
0.0	0.0	-0.0010756934
-0.0007683524	0.0	-0.0010756934
-0.0015367048	-0.0	-0.0010756934
0.0	-0.0006146819	-0.0010756934
-0.0007683524	-0.0006146819	-0.0010756934
-0.0015367048	-0.0006146819	-0.0010756934
0.0	-0.0012293639	-0.0010756934
-0.0007683524	-0.0012293639	-0.0010756934
-0.0015367048	-0.0012293639	-0.0010756934
0.0	-0.0	-0.0021513868
-0.0007683524	-0.0	-0.0021513868
-0.0015367048	0.0	-0.0021513868
0.0	-0.0006146819	-0.0021513868
-0.0007683524	-0.0006146819	-0.0021513868
-0.0015367048	-0.0006146819	-0.0021513868
0.0	-0.0012293639	-0.0021513868
-0.0007683524	-0.0012293639	-0.0021513868
-0.0015367048	-0.0012293639	-0.0021513868

VECTORS	v 	float 
0.0	0.0	0.0
2.56203e-05	0.0	0.0
5.12405e-05	0.0	0.0
0.0	2.04962e-05	0.0
2.56203e-05	2.04962e-05	0.0
5.12405e-05	2.04962e-05	0.0
0.0	4.09924e-05	0.0
2.56203e-05	4.09924e-05	0.0
5.12405e-05	4.09924e-05	0.0
-0.0	0.0	-0.0001336294
2.56203e-05	-0.0	-0.0001336294
5.12405e-05	0.0	-0.0001336294
0.0	2.04962e-05	-0.0001336294
2.56203e-05	2.04962e-05	-0.0001336294
5.12405e-05	2.04962e-05	-0.0001336294
0.0	4.09924e-05	-0.0001336294
2.56203e-05	4.09924e-05	-0.0001336294
5.12405e-05	4.09924e-05	-0.0001336294
-0.0	0.0	-0.0002672588
2.56203e-05	0.0	-0.0002672588
5.12405e-05	-0.0	-0.0002672588
-0.0	2.04962e-05	-0.0002672588
2.56203e-05	2.04962e-05	-0.0002672588
5.12405e-05	2.04962e-05	-0.0002672588
-0.0	4.09924e-05	-0.0002672588
2.56203e-05	4.09924e-05	-0.0002672588
5.12405e-05	4.09924e-05	-0.0002672588

VECTORS	a 	float 
0.0	0.0	0.0
-8.9298193114	0.0	0.0
-17.8596386229	0.0	0.0
0.0	-7.1438554492	0.0
-8.9298193114	-7.1438554491	0.0
-17.8596386229	-7.1438554492	0.0
0.0	-14.2877108983	0.0
-8.9298193114	-14.2877108983	0.0
-17.8596386229	-14.2877108983	0.0
-0.0	0.0	30.760570001
-8.9298193115	-0.0	30.760570001
-17.8596386229	0.0	30.760570001
0.0	-7.1438554491	30.7605700009
-8.9298193115	-7.1438554492	30.760570001
-17.8596386229	-7.1438554492	30.760570001
0.0	-14.2877108983	30.7605700009
-8.9298193115	-14.2877108983	30.760570001
-17.8596386229	-14.2877108983	30.760570001
-1e-10	0.0	61.5211400019
-8.9298193115	0.0	61.521140002
-17.859638623	-0.0	61.521140002
-0.0	-7.1438554491	61.5211400019
-8.9298193115	-7.1438554491	61.5211400019
-17.859638623	-7.1438554491	61.521140002
-0.0	-14.2877108983	61.5211400019
-8.9298193115	-14.2877108983	61.5211400019
-17.859638623	-14.2877108983	61.521140002

SCALARS	theta	float 1
LOOKUP_TABLE	default
299.8463267017
299.8463267017
299.8463267017
299.8463267017
299.8463267017
299.8463267017
299.8463267017
299.8463267017
299.8463267017
299.8463267017
299.8463267017
299.8463267017
299.8463267017
299.8463267017
299.8463267017
299.8463267017
299.8463267017
299.8463267017
299.8463267017
299.8463267017
299.8463267017
299.8463267017
299.8463267017
299.8463267017
299.8463267017
299.8463267017
299.8463267017

SCALARS	sig_11	float	1
LOOKUP_TABLE	default
-1e-09
-1e-09
-1e-09
-1e-09
-1e-09
-1e-09
-1e-09
-1e-09
-1e-09
-1e-09
-1e-09
-1e-09
-1e-09
-1e-09
-1e-09
-1e-09
-1e-09
-1e-09
-1e-09
-1e-09
-1e-09
-1e-09
-1e-09
-1e-09
-1e-09
-1e-09
-1e-09

SCALARS	sig_22	float	1
LOOKUP_TABLE	default
-1e-09
-1e-09
-1e-09
-1e-09
-1e-09
-1e-09
-1e-09
-1e-09
-1e-09
-1e-09
-1e-09
-1e-09
-1e-09
-1e-09
-1e-09
-1e-09
-1e-09
-1e-09
-1e-09
-1e-09
-1e-09
-1e-09
-1e-09
-1e-09
-1e-09
-1e-09
-1e-09

SCALARS	sig_33	float	1
LOOKUP_TABLE	default
-1e-09
-1e-09
-1e-09
-1e-09
-1e-09
-1e-09
-1e-09
-1e-09
-1e-09
-1e-09
-1e-09
-1e-09
-1e-09
-1e-09
-1e-09
-1e-09
-1e-09
-1e-09
-1e-09
-1e-09
-1e-09
-1e-09
-1e-09
-1e-09
-1e-09
-1e-09
-1e-09

SCALARS vonMises	float	1
LOOKUP_TABLE	default
0.0
0.0
0.0
0.0
0.0
0.0
0.0
0.0
0.0
0.0
0.0
0.0
0.0
0.0
0.0
0.0
0.0
0.0
0.0
0.0
0.0
0.0
0.0
0.0
0.0
0.0
0.0
