# vtk DataFile Version 2.0
Results
ASCII
DATASET UNSTRUCTURED_GRID
POINTS         27           float
0.0	0.0	0.0	
50.0	0.0	0.0	
100.0	0.0	0.0	
0.0	40.0	0.0	
50.0	40.0	0.0	
100.0	40.0	0.0	
0.0	80.0	0.0	
50.0	80.0	0.0	
100.0	80.0	0.0	
0.0	0.0	70.0	
50.0	0.0	70.0	
100.0	0.0	70.0	
0.0	40.0	70.0	
50.0	40.0	70.0	
100.0	40.0	70.0	
0.0	80.0	70.0	
50.0	80.0	70.0	
100.0	80.0	70.0	
0.0	0.0	140.0	
50.0	0.0	140.0	
100.0	0.0	140.0	
0.0	40.0	140.0	
50.0	40.0	140.0	
100.0	40.0	140.0	
0.0	80.0	140.0	
50.0	80.0	140.0	
100.0	80.0	140.0	

CELLS	8	72
 8	0	1	4	3	9	10	13	12	
 8	1	2	5	4	10	11	14	13	
 8	4	5	8	7	13	14	17	16	
 8	3	4	7	6	12	13	16	15	
 8	9	10	13	12	18	19	22	21	
 8	10	11	14	13	19	20	23	22	
 8	13	14	17	16	22	23	26	25	
 8	12	13	16	15	21	22	25	24	

CELL_TYPES	8
 12
 12
 12
 12
 12
 12
 12
 12

POINT_DATA	27
SCALARS	u1	float 1
LOOKUP_TABLE	default
0.0
-0.011
-0.023
0.0
-0.011
-0.023
0.0
-0.011
-0.023
-0.0
-0.011
-0.023
0.0
-0.011
-0.023
0.0
-0.011
-0.023
-0.0
-0.011
-0.023
-0.0
-0.011
-0.023
-0.0
-0.011
-0.023

SCALARS	u2	float 1
LOOKUP_TABLE	default
0.0
0.0
0.0
-0.009
-0.009
-0.009
-0.018
-0.018
-0.018
0.0
0.0
0.0
-0.009
-0.009
-0.009
-0.018
-0.018
-0.018
0.0
0.0
0.0
-0.009
-0.009
-0.009
-0.018
-0.018
-0.018

SCALARS	u3	float 1
LOOKUP_TABLE	default
0.0
0.0
0.0
0.0
0.0
0.0
0.0
0.0
0.0
0.038
0.038
0.038
0.038
0.038
0.038
0.038
0.038
0.038
0.077
0.077
0.077
0.077
0.077
0.077
0.077
0.077
0.077

SCALARS	u4	float 1
LOOKUP_TABLE	default
299.515
299.515
299.515
299.515
299.515
299.515
299.515
299.515
299.515
299.515
299.515
299.515
299.515
299.515
299.515
299.515
299.515
299.515
299.515
299.515
299.515
299.515
299.515
299.515
299.515
299.515
299.515

VECTORS	u 	float 
0.0	0.0	0.0
-0.0113564601	0.0	0.0
-0.0227129202	0.0	0.0
0.0	-0.0090851681	0.0
-0.0113564601	-0.0090851681	0.0
-0.0227129202	-0.0090851681	0.0
0.0	-0.0181703361	0.0
-0.0113564601	-0.0181703361	0.0
-0.0227129202	-0.0181703361	0.0
-0.0	0.0	0.0383305751
-0.0113564601	0.0	0.0383305751
-0.0227129202	0.0	0.0383305751
0.0	-0.0090851681	0.0383305751
-0.0113564601	-0.0090851681	0.0383305751
-0.0227129202	-0.0090851681	0.0383305751
0.0	-0.0181703361	0.0383305751
-0.0113564601	-0.0181703361	0.0383305751
-0.0227129202	-0.0181703361	0.0383305751
-0.0	0.0	0.0766611502
-0.0113564601	0.0	0.0766611502
-0.0227129202	0.0	0.0766611502
-0.0	-0.0090851681	0.0766611502
-0.0113564601	-0.0090851681	0.0766611502
-0.0227129202	-0.0090851681	0.0766611502
-0.0	-0.0181703361	0.0766611502
-0.0113564601	-0.0181703361	0.0766611502
-0.0227129202	-0.0181703361	0.0766611502

VECTORS	v 	float 
0.0	0.0	0.0
0.0223376419	0.0	0.0
0.0446752837	0.0	0.0
0.0	0.0178701135	0.0
0.0223376419	0.0178701135	0.0
0.0446752837	0.0178701135	0.0
0.0	0.035740227	0.0
0.0223376419	0.035740227	0.0
0.0446752837	0.035740227	0.0
0.0	-0.0	-0.0770187088
0.0223376419	0.0	-0.0770187088
0.0446752837	-0.0	-0.0770187088
-0.0	0.0178701135	-0.0770187088
0.0223376419	0.0178701135	-0.0770187088
0.0446752837	0.0178701135	-0.0770187088
-0.0	0.035740227	-0.0770187088
0.0223376419	0.035740227	-0.0770187088
0.0446752837	0.035740227	-0.0770187088
0.0	-0.0	-0.1540374176
0.0223376419	0.0	-0.1540374176
0.0446752837	0.0	-0.1540374176
-0.0	0.0178701135	-0.1540374176
0.0223376419	0.0178701135	-0.1540374176
0.0446752837	0.0178701135	-0.1540374176
-0.0	0.035740227	-0.1540374176
0.0223376419	0.035740227	-0.1540374176
0.0446752837	0.035740227	-0.1540374176

VECTORS	a 	float 
0.0	0.0	0.0
1.9217958794	0.0	0.0
3.8435917588	0.0	0.0
0.0	1.5374367035	0.0
1.9217958794	1.5374367035	0.0
3.8435917588	1.5374367035	0.0
0.0	3.0748734071	0.0
1.9217958794	3.0748734071	0.0
3.8435917588	3.0748734071	0.0
0.0	-0.0	-6.6228813281
1.9217958794	0.0	-6.6228813281
3.8435917588	-0.0	-6.6228813281
0.0	1.5374367035	-6.6228813281
1.9217958794	1.5374367035	-6.6228813281
3.8435917588	1.5374367035	-6.6228813281
0.0	3.0748734071	-6.6228813281
1.9217958794	3.0748734071	-6.6228813281
3.8435917588	3.0748734071	-6.6228813281
0.0	-0.0	-13.2457626563
1.9217958794	-0.0	-13.2457626563
3.8435917588	0.0	-13.2457626563
0.0	1.5374367035	-13.2457626563
1.9217958794	1.5374367035	-13.2457626563
3.8435917588	1.5374367035	-13.2457626563
0.0	3.0748734071	-13.2457626563
1.9217958794	3.0748734071	-13.2457626563
3.8435917588	3.0748734071	-13.2457626563

SCALARS	theta	float 1
LOOKUP_TABLE	default
299.5150240288
299.5150240288
299.5150240288
299.5150240288
299.5150240288
299.5150240288
299.5150240288
299.5150240288
299.5150240288
299.5150240288
299.5150240288
299.5150240288
299.5150240288
299.5150240288
299.5150240288
299.5150240288
299.5150240288
299.5150240288
299.5150240288
299.5150240288
299.5150240288
299.5150240288
299.5150240288
299.5150240288
299.5150240288
299.5150240288
299.5150240288

SCALARS	sig_11	float	1
LOOKUP_TABLE	default
-2.4e-09
-2.4e-09
-2.3e-09
-2.4e-09
-2.4e-09
-2.3e-09
-2.4e-09
-2.4e-09
-2.4e-09
-2.4e-09
-2.4e-09
-2.3e-09
-2.3e-09
-2.3e-09
-2.3e-09
-2.3e-09
-2.3e-09
-2.4e-09
-2.4e-09
-2.4e-09
-2.4e-09
-2.4e-09
-2.4e-09
-2.4e-09
-2.3e-09
-2.3e-09
-2.4e-09

SCALARS	sig_22	float	1
LOOKUP_TABLE	default
-2.4e-09
-2.4e-09
-2.3e-09
-2.4e-09
-2.4e-09
-2.3e-09
-2.4e-09
-2.4e-09
-2.4e-09
-2.4e-09
-2.4e-09
-2.3e-09
-2.3e-09
-2.3e-09
-2.3e-09
-2.3e-09
-2.3e-09
-2.4e-09
-2.4e-09
-2.4e-09
-2.4e-09
-2.4e-09
-2.4e-09
-2.4e-09
-2.4e-09
-2.4e-09
-2.4e-09

SCALARS	sig_33	float	1
LOOKUP_TABLE	default
124.9883409728
124.9883409728
124.9883409728
124.9883409728
124.9883409728
124.9883409728
124.9883409728
124.9883409728
124.9883409728
124.9883409728
124.9883409728
124.9883409728
124.9883409728
124.9883409728
124.9883409728
124.9883409729
124.9883409728
124.9883409728
124.9883409728
124.9883409728
124.9883409728
124.9883409728
124.9883409728
124.9883409728
124.9883409728
124.9883409728
124.9883409728

SCALARS vonMises	float	1
LOOKUP_TABLE	default
88.3801034728
88.3801034728
88.3801034728
88.3801034728
88.3801034728
88.3801034728
88.3801034728
88.3801034728
88.3801034728
88.3801034728
88.3801034728
88.3801034728
88.3801034728
88.3801034728
88.3801034728
88.3801034728
88.3801034728
88.3801034728
88.3801034728
88.3801034728
88.3801034728
88.3801034728
88.3801034728
88.3801034728
88.3801034728
88.3801034728
88.3801034728
