# vtk DataFile Version 2.0
Results
ASCII
DATASET UNSTRUCTURED_GRID
POINTS         27           float
0.0	0.0	0.0	
50.0	0.0	0.0	
100.0	0.0	0.0	
0.0	40.0	0.0	
50.0	40.0	0.0	
100.0	40.0	0.0	
0.0	80.0	0.0	
50.0	80.0	0.0	
100.0	80.0	0.0	
0.0	0.0	70.0	
50.0	0.0	70.0	
100.0	0.0	70.0	
0.0	40.0	70.0	
50.0	40.0	70.0	
100.0	40.0	70.0	
0.0	80.0	70.0	
50.0	80.0	70.0	
100.0	80.0	70.0	
0.0	0.0	140.0	
50.0	0.0	140.0	
100.0	0.0	140.0	
0.0	40.0	140.0	
50.0	40.0	140.0	
100.0	40.0	140.0	
0.0	80.0	140.0	
50.0	80.0	140.0	
100.0	80.0	140.0	

CELLS	8	72
 8	0	1	4	3	9	10	13	12	
 8	1	2	5	4	10	11	14	13	
 8	4	5	8	7	13	14	17	16	
 8	3	4	7	6	12	13	16	15	
 8	9	10	13	12	18	19	22	21	
 8	10	11	14	13	19	20	23	22	
 8	13	14	17	16	22	23	26	25	
 8	12	13	16	15	21	22	25	24	

CELL_TYPES	8
 12
 12
 12
 12
 12
 12
 12
 12

POINT_DATA	27
SCALARS	u1	float 1
LOOKUP_TABLE	default
0.0
-0.012
-0.023
0.0
-0.012
-0.023
0.0
-0.012
-0.023
0.0
-0.012
-0.023
0.0
-0.012
-0.023
0.0
-0.012
-0.023
0.0
-0.012
-0.023
0.0
-0.012
-0.023
0.0
-0.012
-0.023

SCALARS	u2	float 1
LOOKUP_TABLE	default
0.0
0.0
0.0
-0.009
-0.009
-0.009
-0.019
-0.019
-0.019
-0.0
-0.0
-0.0
-0.009
-0.009
-0.009
-0.019
-0.019
-0.019
-0.0
-0.0
-0.0
-0.009
-0.009
-0.009
-0.019
-0.019
-0.019

SCALARS	u3	float 1
LOOKUP_TABLE	default
0.0
0.0
0.0
0.0
0.0
0.0
0.0
0.0
0.0
0.038
0.038
0.038
0.038
0.038
0.038
0.038
0.038
0.038
0.076
0.076
0.076
0.076
0.076
0.076
0.076
0.076
0.076

SCALARS	u4	float 1
LOOKUP_TABLE	default
299.447
299.447
299.447
299.447
299.447
299.447
299.447
299.447
299.447
299.447
299.447
299.447
299.447
299.447
299.447
299.447
299.447
299.447
299.447
299.447
299.447
299.447
299.447
299.447
299.447
299.447
299.447

VECTORS	u 	float 
0.0	0.0	0.0
-0.0116985605	0.0	0.0
-0.023397121	0.0	0.0
0.0	-0.0093588484	0.0
-0.0116985605	-0.0093588484	0.0
-0.023397121	-0.0093588484	0.0
0.0	-0.0187176968	0.0
-0.0116985605	-0.0187176968	0.0
-0.023397121	-0.0187176968	0.0
0.0	-0.0	0.0378516352
-0.0116985605	-0.0	0.0378516352
-0.023397121	-0.0	0.0378516352
0.0	-0.0093588484	0.0378516352
-0.0116985605	-0.0093588484	0.0378516352
-0.023397121	-0.0093588484	0.0378516352
0.0	-0.0187176968	0.0378516352
-0.0116985605	-0.0187176968	0.0378516352
-0.023397121	-0.0187176968	0.0378516352
0.0	-0.0	0.0757032705
-0.0116985605	-0.0	0.0757032705
-0.023397121	-0.0	0.0757032705
0.0	-0.0093588484	0.0757032705
-0.0116985605	-0.0093588484	0.0757032705
-0.023397121	-0.0093588484	0.0757032705
0.0	-0.0187176968	0.0757032705
-0.0116985605	-0.0187176968	0.0757032705
-0.023397121	-0.0187176968	0.0757032705

VECTORS	v 	float 
0.0	0.0	0.0
-0.0223524126	0.0	0.0
-0.0447048251	0.0	0.0
0.0	-0.0178819301	0.0
-0.0223524126	-0.0178819301	0.0
-0.0447048251	-0.0178819301	0.0
0.0	-0.0357638601	0.0
-0.0223524126	-0.0357638601	0.0
-0.0447048251	-0.0357638601	0.0
-0.0	-0.0	0.0769980148
-0.0223524126	-0.0	0.0769980148
-0.0447048251	-0.0	0.0769980148
0.0	-0.0178819301	0.0769980148
-0.0223524126	-0.0178819301	0.0769980148
-0.0447048251	-0.0178819301	0.0769980148
0.0	-0.0357638601	0.0769980148
-0.0223524126	-0.0357638601	0.0769980148
-0.0447048251	-0.0357638601	0.0769980148
-0.0	0.0	0.1539960297
-0.0223524126	-0.0	0.1539960297
-0.0447048251	-0.0	0.1539960297
-0.0	-0.0178819301	0.1539960297
-0.0223524126	-0.0178819301	0.1539960297
-0.0447048251	-0.0178819301	0.1539960297
-0.0	-0.0357638601	0.1539960297
-0.0223524126	-0.0357638601	0.1539960297
-0.0447048251	-0.0357638601	0.1539960297

VECTORS	a 	float 
0.0	0.0	0.0
-5.9439008382	0.0	0.0
-11.8878016765	0.0	0.0
0.0	-4.7551206706	0.0
-5.9439008382	-4.7551206706	0.0
-11.8878016765	-4.7551206706	0.0
0.0	-9.5102413412	0.0
-5.9439008382	-9.5102413411	0.0
-11.8878016764	-9.5102413412	0.0
-0.0	0.0	20.4843863714
-5.9439008382	-0.0	20.4843863714
-11.8878016764	-0.0	20.4843863714
0.0	-4.7551206706	20.4843863714
-5.9439008382	-4.7551206706	20.4843863714
-11.8878016764	-4.7551206706	20.4843863715
0.0	-9.5102413412	20.4843863714
-5.9439008382	-9.5102413412	20.4843863714
-11.8878016765	-9.5102413411	20.4843863715
-0.0	0.0	40.9687727429
-5.9439008382	0.0	40.9687727429
-11.8878016765	-0.0	40.9687727429
-0.0	-4.7551206706	40.9687727429
-5.9439008382	-4.7551206706	40.9687727429
-11.8878016765	-4.7551206706	40.9687727429
-0.0	-9.5102413412	40.9687727429
-5.9439008382	-9.5102413411	40.9687727429
-11.8878016765	-9.5102413411	40.9687727429

SCALARS	theta	float 1
LOOKUP_TABLE	default
299.4466030154
299.4466030154
299.4466030154
299.4466030154
299.4466030154
299.4466030154
299.4466030154
299.4466030154
299.4466030154
299.4466030154
299.4466030154
299.4466030154
299.4466030154
299.4466030154
299.4466030154
299.4466030154
299.4466030154
299.4466030154
299.4466030154
299.4466030154
299.4466030154
299.4466030154
299.4466030154
299.4466030154
299.4466030154
299.4466030154
299.4466030154

SCALARS	sig_11	float	1
LOOKUP_TABLE	default
-2.3e-09
-2.3e-09
-2.3e-09
-2.3e-09
-2.3e-09
-2.3e-09
-2.3e-09
-2.3e-09
-2.3e-09
-2.3e-09
-2.3e-09
-2.3e-09
-2.3e-09
-2.3e-09
-2.3e-09
-2.3e-09
-2.3e-09
-2.3e-09
-2.3e-09
-2.3e-09
-2.3e-09
-2.3e-09
-2.3e-09
-2.3e-09
-2.3e-09
-2.3e-09
-2.3e-09

SCALARS	sig_22	float	1
LOOKUP_TABLE	default
-2.3e-09
-2.3e-09
-2.3e-09
-2.3e-09
-2.3e-09
-2.3e-09
-2.3e-09
-2.3e-09
-2.3e-09
-2.3e-09
-2.3e-09
-2.3e-09
-2.3e-09
-2.3e-09
-2.3e-09
-2.3e-09
-2.3e-09
-2.3e-09
-2.3e-09
-2.3e-09
-2.3e-09
-2.3e-09
-2.3e-09
-2.3e-09
-2.3e-09
-2.3e-09
-2.3e-09

SCALARS	sig_33	float	1
LOOKUP_TABLE	default
124.9909055925
124.9909055925
124.9909055925
124.9909055925
124.9909055925
124.9909055925
124.9909055925
124.9909055925
124.9909055925
124.9909055925
124.9909055925
124.9909055925
124.9909055925
124.9909055925
124.9909055925
124.9909055925
124.9909055925
124.9909055925
124.9909055925
124.9909055925
124.9909055925
124.9909055925
124.9909055925
124.9909055925
124.9909055925
124.9909055925
124.9909055925

SCALARS vonMises	float	1
LOOKUP_TABLE	default
88.3819169327
88.3819169327
88.3819169327
88.3819169327
88.3819169327
88.3819169327
88.3819169327
88.3819169327
88.3819169327
88.3819169327
88.3819169327
88.3819169327
88.3819169327
88.3819169327
88.3819169327
88.3819169327
88.3819169327
88.3819169327
88.3819169327
88.3819169327
88.3819169327
88.3819169327
88.3819169327
88.3819169327
88.3819169327
88.3819169327
88.3819169327
