# vtk DataFile Version 2.0
Results
ASCII
DATASET UNSTRUCTURED_GRID
POINTS         27           float
0.0	0.0	0.0	
50.0	0.0	0.0	
100.0	0.0	0.0	
0.0	40.0	0.0	
50.0	40.0	0.0	
100.0	40.0	0.0	
0.0	80.0	0.0	
50.0	80.0	0.0	
100.0	80.0	0.0	
0.0	0.0	70.0	
50.0	0.0	70.0	
100.0	0.0	70.0	
0.0	40.0	70.0	
50.0	40.0	70.0	
100.0	40.0	70.0	
0.0	80.0	70.0	
50.0	80.0	70.0	
100.0	80.0	70.0	
0.0	0.0	140.0	
50.0	0.0	140.0	
100.0	0.0	140.0	
0.0	40.0	140.0	
50.0	40.0	140.0	
100.0	40.0	140.0	
0.0	80.0	140.0	
50.0	80.0	140.0	
100.0	80.0	140.0	

CELLS	8	72
 8	0	1	4	3	9	10	13	12	
 8	1	2	5	4	10	11	14	13	
 8	4	5	8	7	13	14	17	16	
 8	3	4	7	6	12	13	16	15	
 8	9	10	13	12	18	19	22	21	
 8	10	11	14	13	19	20	23	22	
 8	13	14	17	16	22	23	26	25	
 8	12	13	16	15	21	22	25	24	

CELL_TYPES	8
 12
 12
 12
 12
 12
 12
 12
 12

POINT_DATA	27
SCALARS	u1	float 1
LOOKUP_TABLE	default
0.0
-0.012
-0.024
0.0
-0.012
-0.024
0.0
-0.012
-0.024
0.0
-0.012
-0.024
0.0
-0.012
-0.024
0.0
-0.012
-0.024
-0.0
-0.012
-0.024
-0.0
-0.012
-0.024
-0.0
-0.012
-0.024

SCALARS	u2	float 1
LOOKUP_TABLE	default
0.0
0.0
0.0
-0.009
-0.009
-0.009
-0.019
-0.019
-0.019
0.0
0.0
0.0
-0.009
-0.009
-0.009
-0.019
-0.019
-0.019
0.0
0.0
0.0
-0.009
-0.009
-0.009
-0.019
-0.019
-0.019

SCALARS	u3	float 1
LOOKUP_TABLE	default
0.0
0.0
0.0
0.0
0.0
0.0
0.0
0.0
0.0
0.038
0.038
0.038
0.038
0.038
0.038
0.038
0.038
0.038
0.076
0.076
0.076
0.076
0.076
0.076
0.076
0.076
0.076

SCALARS	u4	float 1
LOOKUP_TABLE	default
299.434
299.434
299.434
299.434
299.434
299.434
299.434
299.434
299.434
299.434
299.434
299.434
299.434
299.434
299.434
299.434
299.434
299.434
299.434
299.434
299.434
299.434
299.434
299.434
299.434
299.434
299.434

VECTORS	u 	float 
0.0	0.0	0.0
-0.011759376	0.0	0.0
-0.0235187521	0.0	0.0
0.0	-0.0094075008	0.0
-0.011759376	-0.0094075008	0.0
-0.0235187521	-0.0094075008	0.0
0.0	-0.0188150016	0.0
-0.011759376	-0.0188150016	0.0
-0.0235187521	-0.0188150016	0.0
0.0	0.0	0.0377664936
-0.011759376	0.0	0.0377664936
-0.0235187521	0.0	0.0377664936
0.0	-0.0094075008	0.0377664936
-0.011759376	-0.0094075008	0.0377664936
-0.0235187521	-0.0094075008	0.0377664936
0.0	-0.0188150016	0.0377664936
-0.011759376	-0.0188150016	0.0377664936
-0.0235187521	-0.0188150016	0.0377664936
-0.0	0.0	0.0755329873
-0.011759376	0.0	0.0755329873
-0.0235187521	0.0	0.0755329873
-0.0	-0.0094075008	0.0755329873
-0.011759376	-0.0094075008	0.0755329873
-0.0235187521	-0.0094075008	0.0755329873
-0.0	-0.0188150016	0.0755329873
-0.011759376	-0.0188150016	0.0755329873
-0.0235187521	-0.0188150016	0.0755329873

VECTORS	v 	float 
0.0	0.0	0.0
-0.0223523359	0.0	0.0
-0.0447046719	0.0	0.0
0.0	-0.0178818688	0.0
-0.0223523359	-0.0178818688	0.0
-0.0447046719	-0.0178818688	0.0
0.0	-0.0357637375	0.0
-0.0223523359	-0.0357637375	0.0
-0.0447046719	-0.0357637375	0.0
-0.0	-0.0	0.0769981224
-0.0223523359	-0.0	0.0769981224
-0.0447046719	-0.0	0.0769981224
0.0	-0.0178818688	0.0769981224
-0.0223523359	-0.0178818688	0.0769981224
-0.0447046719	-0.0178818688	0.0769981224
0.0	-0.0357637375	0.0769981224
-0.0223523359	-0.0357637375	0.0769981224
-0.0447046719	-0.0357637375	0.0769981224
-0.0	0.0	0.1539962447
-0.0223523359	-0.0	0.1539962447
-0.0447046719	-0.0	0.1539962447
-0.0	-0.0178818688	0.1539962447
-0.0223523359	-0.0178818688	0.1539962447
-0.0447046719	-0.0178818688	0.1539962447
-0.0	-0.0357637375	0.1539962447
-0.0223523359	-0.0357637375	0.1539962447
-0.0447046719	-0.0357637375	0.1539962447

VECTORS	a 	float 
0.0	0.0	0.0
-6.6589336106	0.0	0.0
-13.3178672211	0.0	0.0
0.0	-5.3271468884	0.0
-6.6589336106	-5.3271468884	0.0
-13.3178672211	-5.3271468884	0.0
0.0	-10.6542937769	0.0
-6.6589336106	-10.6542937769	0.0
-13.3178672211	-10.6542937769	0.0
-0.0	0.0	22.9486653151
-6.6589336106	-0.0	22.9486653151
-13.3178672211	-0.0	22.9486653151
0.0	-5.3271468884	22.9486653151
-6.6589336106	-5.3271468884	22.9486653151
-13.3178672211	-5.3271468884	22.9486653151
0.0	-10.6542937769	22.9486653151
-6.6589336106	-10.6542937769	22.9486653151
-13.3178672211	-10.6542937769	22.9486653151
-0.0	0.0	45.8973306302
-6.6589336106	0.0	45.8973306302
-13.3178672211	-0.0	45.8973306302
-0.0	-5.3271468884	45.8973306302
-6.6589336106	-5.3271468884	45.8973306302
-13.3178672211	-5.3271468884	45.8973306302
-0.0	-10.6542937769	45.8973306302
-6.6589336106	-10.6542937769	45.8973306302
-13.3178672211	-10.6542937769	45.8973306302

SCALARS	theta	float 1
LOOKUP_TABLE	default
299.4344396274
299.4344396274
299.4344396274
299.4344396274
299.4344396274
299.4344396274
299.4344396274
299.4344396274
299.4344396274
299.4344396274
299.4344396274
299.4344396274
299.4344396274
299.4344396274
299.4344396274
299.4344396274
299.4344396274
299.4344396274
299.4344396274
299.4344396274
299.4344396274
299.4344396274
299.4344396274
299.4344396274
299.4344396274
299.4344396274
299.4344396274

SCALARS	sig_11	float	1
LOOKUP_TABLE	default
-2.4e-09
-2.4e-09
-2.4e-09
-2.4e-09
-2.4e-09
-2.4e-09
-2.4e-09
-2.4e-09
-2.4e-09
-2.4e-09
-2.3e-09
-2.4e-09
-2.3e-09
-2.4e-09
-2.4e-09
-2.3e-09
-2.3e-09
-2.4e-09
-2.3e-09
-2.3e-09
-2.4e-09
-2.3e-09
-2.3e-09
-2.4e-09
-2.3e-09
-2.3e-09
-2.4e-09

SCALARS	sig_22	float	1
LOOKUP_TABLE	default
-2.4e-09
-2.4e-09
-2.4e-09
-2.4e-09
-2.4e-09
-2.4e-09
-2.4e-09
-2.4e-09
-2.4e-09
-2.4e-09
-2.3e-09
-2.4e-09
-2.3e-09
-2.4e-09
-2.4e-09
-2.3e-09
-2.3e-09
-2.4e-09
-2.3e-09
-2.3e-09
-2.4e-09
-2.3e-09
-2.3e-09
-2.4e-09
-2.3e-09
-2.3e-09
-2.4e-09

SCALARS	sig_33	float	1
LOOKUP_TABLE	default
124.9913615024
124.9913615024
124.9913615024
124.9913615024
124.9913615024
124.9913615024
124.9913615024
124.9913615024
124.9913615024
124.9913615024
124.9913615024
124.9913615024
124.9913615024
124.9913615024
124.9913615024
124.9913615024
124.9913615024
124.9913615024
124.9913615024
124.9913615024
124.9913615024
124.9913615024
124.9913615024
124.9913615024
124.9913615024
124.9913615024
124.9913615024

SCALARS vonMises	float	1
LOOKUP_TABLE	default
88.3822393098
88.3822393098
88.3822393098
88.3822393098
88.3822393098
88.3822393098
88.3822393098
88.3822393098
88.3822393098
88.3822393098
88.3822393098
88.3822393098
88.3822393098
88.3822393098
88.3822393098
88.3822393098
88.3822393098
88.3822393098
88.3822393098
88.3822393098
88.3822393098
88.3822393098
88.3822393098
88.3822393098
88.3822393098
88.3822393098
88.3822393098
