# vtk DataFile Version 2.0
Results
ASCII
DATASET UNSTRUCTURED_GRID
POINTS         27           float
0.0	0.0	0.0	
50.0	0.0	0.0	
100.0	0.0	0.0	
0.0	40.0	0.0	
50.0	40.0	0.0	
100.0	40.0	0.0	
0.0	80.0	0.0	
50.0	80.0	0.0	
100.0	80.0	0.0	
0.0	0.0	70.0	
50.0	0.0	70.0	
100.0	0.0	70.0	
0.0	40.0	70.0	
50.0	40.0	70.0	
100.0	40.0	70.0	
0.0	80.0	70.0	
50.0	80.0	70.0	
100.0	80.0	70.0	
0.0	0.0	140.0	
50.0	0.0	140.0	
100.0	0.0	140.0	
0.0	40.0	140.0	
50.0	40.0	140.0	
100.0	40.0	140.0	
0.0	80.0	140.0	
50.0	80.0	140.0	
100.0	80.0	140.0	

CELLS	8	72
 8	0	1	4	3	9	10	13	12	
 8	1	2	5	4	10	11	14	13	
 8	4	5	8	7	13	14	17	16	
 8	3	4	7	6	12	13	16	15	
 8	9	10	13	12	18	19	22	21	
 8	10	11	14	13	19	20	23	22	
 8	13	14	17	16	22	23	26	25	
 8	12	13	16	15	21	22	25	24	

CELL_TYPES	8
 12
 12
 12
 12
 12
 12
 12
 12

POINT_DATA	27
SCALARS	u1	float 1
LOOKUP_TABLE	default
0.0
-0.012
-0.023
0.0
-0.012
-0.023
0.0
-0.012
-0.023
-0.0
-0.012
-0.023
-0.0
-0.012
-0.023
0.0
-0.012
-0.023
-0.0
-0.012
-0.023
0.0
-0.012
-0.023
0.0
-0.012
-0.023

SCALARS	u2	float 1
LOOKUP_TABLE	default
0.0
0.0
0.0
-0.009
-0.009
-0.009
-0.019
-0.019
-0.019
0.0
0.0
0.0
-0.009
-0.009
-0.009
-0.019
-0.019
-0.019
0.0
0.0
0.0
-0.009
-0.009
-0.009
-0.019
-0.019
-0.019

SCALARS	u3	float 1
LOOKUP_TABLE	default
0.0
0.0
0.0
0.0
0.0
0.0
0.0
0.0
0.0
0.038
0.038
0.038
0.038
0.038
0.038
0.038
0.038
0.038
0.076
0.076
0.076
0.076
0.076
0.076
0.076
0.076
0.076

SCALARS	u4	float 1
LOOKUP_TABLE	default
299.462
299.462
299.462
299.462
299.462
299.462
299.462
299.462
299.462
299.462
299.462
299.462
299.462
299.462
299.462
299.462
299.462
299.462
299.462
299.462
299.462
299.462
299.462
299.462
299.462
299.462
299.462

VECTORS	u 	float 
0.0	0.0	0.0
-0.0116225397	0.0	0.0
-0.0232450794	0.0	0.0
0.0	-0.0092980318	0.0
-0.0116225397	-0.0092980318	0.0
-0.0232450794	-0.0092980318	0.0
0.0	-0.0185960635	0.0
-0.0116225397	-0.0185960635	0.0
-0.0232450794	-0.0185960635	0.0
-0.0	0.0	0.0379580642
-0.0116225397	0.0	0.0379580642
-0.0232450794	0.0	0.0379580642
-0.0	-0.0092980318	0.0379580642
-0.0116225397	-0.0092980318	0.0379580642
-0.0232450794	-0.0092980318	0.0379580642
0.0	-0.0185960635	0.0379580642
-0.0116225397	-0.0185960635	0.0379580642
-0.0232450794	-0.0185960635	0.0379580642
-0.0	0.0	0.0759161284
-0.0116225397	0.0	0.0759161284
-0.0232450794	0.0	0.0759161284
0.0	-0.0092980318	0.0759161284
-0.0116225397	-0.0092980318	0.0759161284
-0.0232450794	-0.0092980318	0.0759161284
0.0	-0.0185960635	0.0759161284
-0.0116225397	-0.0185960635	0.0759161284
-0.0232450794	-0.0185960635	0.0759161284

VECTORS	v 	float 
0.0	0.0	0.0
-0.0223525083	0.0	0.0
-0.0447050167	0.0	0.0
0.0	-0.0178820067	0.0
-0.0223525083	-0.0178820067	0.0
-0.0447050167	-0.0178820067	0.0
0.0	-0.0357640133	0.0
-0.0223525083	-0.0357640133	0.0
-0.0447050167	-0.0357640133	0.0
-0.0	0.0	0.0769978804
-0.0223525083	-0.0	0.0769978804
-0.0447050167	-0.0	0.0769978804
0.0	-0.0178820067	0.0769978804
-0.0223525083	-0.0178820067	0.0769978804
-0.0447050167	-0.0178820067	0.0769978804
0.0	-0.0357640133	0.0769978804
-0.0223525083	-0.0357640133	0.0769978804
-0.0447050167	-0.0357640133	0.0769978804
-0.0	0.0	0.1539957608
-0.0223525083	-0.0	0.1539957608
-0.0447050167	-0.0	0.1539957608
-0.0	-0.0178820067	0.1539957608
-0.0223525083	-0.0178820067	0.1539957608
-0.0447050167	-0.0178820067	0.1539957608
-0.0	-0.0357640133	0.1539957608
-0.0223525083	-0.0357640133	0.1539957608
-0.0447050167	-0.0357640133	0.1539957608

VECTORS	a 	float 
0.0	0.0	0.0
-5.05010643	0.0	0.0
-10.1002128601	0.0	0.0
0.0	-4.040085144	0.0
-5.05010643	-4.040085144	0.0
-10.1002128601	-4.040085144	0.0
0.0	-8.080170288	0.0
-5.05010643	-8.080170288	0.0
-10.1002128601	-8.080170288	0.0
-0.0	0.0	17.4040425234
-5.05010643	-0.0	17.4040425234
-10.1002128601	0.0	17.4040425234
0.0	-4.040085144	17.4040425234
-5.05010643	-4.040085144	17.4040425234
-10.1002128601	-4.040085144	17.4040425234
0.0	-8.080170288	17.4040425234
-5.05010643	-8.080170288	17.4040425234
-10.1002128601	-8.080170288	17.4040425234
-0.0	0.0	34.8080850468
-5.05010643	0.0	34.8080850468
-10.1002128601	-0.0	34.8080850468
-0.0	-4.040085144	34.8080850468
-5.05010643	-4.040085144	34.8080850468
-10.1002128601	-4.040085144	34.8080850468
-0.0	-8.080170288	34.8080850468
-5.05010643	-8.080170288	34.8080850468
-10.1002128601	-8.080170288	34.8080850468

SCALARS	theta	float 1
LOOKUP_TABLE	default
299.4618074747
299.4618074747
299.4618074747
299.4618074747
299.4618074747
299.4618074747
299.4618074747
299.4618074747
299.4618074747
299.4618074747
299.4618074747
299.4618074747
299.4618074747
299.4618074747
299.4618074747
299.4618074747
299.4618074747
299.4618074747
299.4618074747
299.4618074747
299.4618074747
299.4618074747
299.4618074747
299.4618074747
299.4618074747
299.4618074747
299.4618074747

SCALARS	sig_11	float	1
LOOKUP_TABLE	default
-2.3e-09
-2.3e-09
-2.3e-09
-2.3e-09
-2.3e-09
-2.3e-09
-2.3e-09
-2.3e-09
-2.4e-09
-2.3e-09
-2.3e-09
-2.3e-09
-2.3e-09
-2.3e-09
-2.3e-09
-2.3e-09
-2.3e-09
-2.3e-09
-2.4e-09
-2.4e-09
-2.3e-09
-2.4e-09
-2.3e-09
-2.3e-09
-2.3e-09
-2.3e-09
-2.3e-09

SCALARS	sig_22	float	1
LOOKUP_TABLE	default
-2.3e-09
-2.3e-09
-2.3e-09
-2.3e-09
-2.3e-09
-2.3e-09
-2.3e-09
-2.3e-09
-2.4e-09
-2.3e-09
-2.3e-09
-2.3e-09
-2.3e-09
-2.3e-09
-2.3e-09
-2.3e-09
-2.3e-09
-2.3e-09
-2.4e-09
-2.4e-09
-2.3e-09
-2.4e-09
-2.4e-09
-2.3e-09
-2.3e-09
-2.3e-09
-2.3e-09

SCALARS	sig_33	float	1
LOOKUP_TABLE	default
124.9903356983
124.9903356983
124.9903356983
124.9903356983
124.9903356983
124.9903356983
124.9903356983
124.9903356983
124.9903356983
124.9903356983
124.9903356983
124.9903356983
124.9903356983
124.9903356983
124.9903356983
124.9903356983
124.9903356983
124.9903356983
124.9903356983
124.9903356983
124.9903356984
124.9903356983
124.9903356983
124.9903356983
124.9903356983
124.9903356983
124.9903356983

SCALARS vonMises	float	1
LOOKUP_TABLE	default
88.3815139567
88.3815139567
88.3815139567
88.3815139567
88.3815139567
88.3815139567
88.3815139567
88.3815139567
88.3815139567
88.3815139567
88.3815139567
88.3815139567
88.3815139567
88.3815139567
88.3815139567
88.3815139567
88.3815139567
88.3815139567
88.3815139567
88.3815139567
88.3815139567
88.3815139567
88.3815139567
88.3815139567
88.3815139567
88.3815139567
88.3815139567
