# vtk DataFile Version 2.0
Results
ASCII
DATASET UNSTRUCTURED_GRID
POINTS         27           float
0.0	0.0	0.0	
50.0	0.0	0.0	
100.0	0.0	0.0	
0.0	40.0	0.0	
50.0	40.0	0.0	
100.0	40.0	0.0	
0.0	80.0	0.0	
50.0	80.0	0.0	
100.0	80.0	0.0	
0.0	0.0	70.0	
50.0	0.0	70.0	
100.0	0.0	70.0	
0.0	40.0	70.0	
50.0	40.0	70.0	
100.0	40.0	70.0	
0.0	80.0	70.0	
50.0	80.0	70.0	
100.0	80.0	70.0	
0.0	0.0	140.0	
50.0	0.0	140.0	
100.0	0.0	140.0	
0.0	40.0	140.0	
50.0	40.0	140.0	
100.0	40.0	140.0	
0.0	80.0	140.0	
50.0	80.0	140.0	
100.0	80.0	140.0	

CELLS	8	72
 8	0	1	4	3	9	10	13	12	
 8	1	2	5	4	10	11	14	13	
 8	4	5	8	7	13	14	17	16	
 8	3	4	7	6	12	13	16	15	
 8	9	10	13	12	18	19	22	21	
 8	10	11	14	13	19	20	23	22	
 8	13	14	17	16	22	23	26	25	
 8	12	13	16	15	21	22	25	24	

CELL_TYPES	8
 12
 12
 12
 12
 12
 12
 12
 12

POINT_DATA	27
SCALARS	u1	float 1
LOOKUP_TABLE	default
0.0
-0.001
-0.002
0.0
-0.001
-0.002
0.0
-0.001
-0.002
0.0
-0.001
-0.002
0.0
-0.001
-0.002
0.0
-0.001
-0.002
0.0
-0.001
-0.002
0.0
-0.001
-0.002
0.0
-0.001
-0.002

SCALARS	u2	float 1
LOOKUP_TABLE	default
0.0
0.0
0.0
-0.001
-0.001
-0.001
-0.001
-0.001
-0.001
0.0
0.0
-0.0
-0.001
-0.001
-0.001
-0.001
-0.001
-0.001
0.0
0.0
0.0
-0.001
-0.001
-0.001
-0.001
-0.001
-0.001

SCALARS	u3	float 1
LOOKUP_TABLE	default
0.0
0.0
0.0
0.0
0.0
0.0
0.0
0.0
0.0
-0.001
-0.001
-0.001
-0.001
-0.001
-0.001
-0.001
-0.001
-0.001
-0.002
-0.002
-0.002
-0.002
-0.002
-0.002
-0.002
-0.002
-0.002

SCALARS	u4	float 1
LOOKUP_TABLE	default
299.846
299.846
299.846
299.846
299.846
299.846
299.846
299.846
299.846
299.846
299.846
299.846
299.846
299.846
299.846
299.846
299.846
299.846
299.846
299.846
299.846
299.846
299.846
299.846
299.846
299.846
299.846

VECTORS	u 	float 
0.0	0.0	0.0
-0.0007683519	0.0	0.0
-0.0015367039	0.0	0.0
0.0	-0.0006146816	0.0
-0.0007683519	-0.0006146816	0.0
-0.0015367039	-0.0006146816	0.0
0.0	-0.0012293631	0.0
-0.0007683519	-0.0012293631	0.0
-0.0015367039	-0.0012293631	0.0
0.0	0.0	-0.0010756927
-0.0007683519	0.0	-0.0010756927
-0.0015367039	-0.0	-0.0010756927
0.0	-0.0006146816	-0.0010756927
-0.0007683519	-0.0006146816	-0.0010756927
-0.0015367039	-0.0006146816	-0.0010756927
0.0	-0.0012293631	-0.0010756927
-0.0007683519	-0.0012293631	-0.0010756927
-0.0015367039	-0.0012293631	-0.0010756927
0.0	0.0	-0.0021513854
-0.0007683519	0.0	-0.0021513854
-0.0015367039	0.0	-0.0021513854
0.0	-0.0006146816	-0.0021513854
-0.0007683519	-0.0006146816	-0.0021513854
-0.0015367039	-0.0006146816	-0.0021513854
0.0	-0.0012293631	-0.0021513854
-0.0007683519	-0.0012293631	-0.0021513854
-0.0015367039	-0.0012293631	-0.0021513854

VECTORS	v 	float 
0.0	0.0	0.0
2.56203e-05	0.0	0.0
5.12405e-05	0.0	0.0
0.0	2.04962e-05	0.0
2.56203e-05	2.04962e-05	0.0
5.12405e-05	2.04962e-05	0.0
0.0	4.09924e-05	0.0
2.56203e-05	4.09924e-05	0.0
5.12405e-05	4.09924e-05	0.0
-0.0	0.0	-0.0001336294
2.56203e-05	-0.0	-0.0001336294
5.12405e-05	0.0	-0.0001336294
0.0	2.04962e-05	-0.0001336294
2.56203e-05	2.04962e-05	-0.0001336294
5.12405e-05	2.04962e-05	-0.0001336294
0.0	4.09924e-05	-0.0001336294
2.56203e-05	4.09924e-05	-0.0001336294
5.12405e-05	4.09924e-05	-0.0001336294
-0.0	0.0	-0.0002672588
2.56203e-05	0.0	-0.0002672588
5.12405e-05	-0.0	-0.0002672588
-0.0	2.04962e-05	-0.0002672588
2.56203e-05	2.04962e-05	-0.0002672588
5.12405e-05	2.04962e-05	-0.0002672588
-0.0	4.09924e-05	-0.0002672588
2.56203e-05	4.09924e-05	-0.0002672588
5.12405e-05	4.09924e-05	-0.0002672588

VECTORS	a 	float 
0.0	0.0	0.0
-8.9347384031	0.0	0.0
-17.8694768061	0.0	0.0
0.0	-7.1477907224	0.0
-8.9347384031	-7.1477907224	0.0
-17.8694768061	-7.1477907225	0.0
0.0	-14.2955814449	0.0
-8.9347384031	-14.2955814449	0.0
-17.8694768061	-14.2955814449	0.0
-0.0	0.0	30.7862268459
-8.9347384031	-0.0	30.7862268459
-17.8694768061	0.0	30.7862268459
0.0	-7.1477907224	30.7862268459
-8.9347384031	-7.1477907224	30.7862268459
-17.8694768061	-7.1477907225	30.7862268459
0.0	-14.2955814449	30.7862268459
-8.9347384031	-14.2955814449	30.7862268459
-17.8694768061	-14.2955814449	30.7862268459
-0.0	0.0	61.5724536918
-8.9347384031	-0.0	61.5724536919
-17.8694768062	-0.0	61.5724536919
-0.0	-7.1477907224	61.5724536918
-8.9347384031	-7.1477907224	61.5724536918
-17.8694768062	-7.1477907224	61.5724536919
-0.0	-14.2955814449	61.5724536918
-8.9347384031	-14.2955814449	61.5724536918
-17.8694768062	-14.2955814449	61.5724536919

SCALARS	theta	float 1
LOOKUP_TABLE	default
299.8463267962
299.8463267962
299.8463267962
299.8463267962
299.8463267962
299.8463267962
299.8463267962
299.8463267962
299.8463267962
299.8463267962
299.8463267962
299.8463267962
299.8463267962
299.8463267962
299.8463267962
299.8463267962
299.8463267962
299.8463267962
299.8463267962
299.8463267962
299.8463267962
299.8463267962
299.8463267962
299.8463267962
299.8463267962
299.8463267962
299.8463267962

SCALARS	sig_11	float	1
LOOKUP_TABLE	default
-1e-09
-1e-09
-1e-09
-1e-09
-1e-09
-9e-10
-1e-09
-1e-09
-9e-10
-1e-09
-1e-09
-1e-09
-9e-10
-1e-09
-1e-09
-9e-10
-9e-10
-9e-10
-1e-09
-1e-09
-1e-09
-1e-09
-1e-09
-1e-09
-9e-10
-9e-10
-9e-10

SCALARS	sig_22	float	1
LOOKUP_TABLE	default
-1e-09
-1e-09
-1e-09
-1e-09
-1e-09
-9e-10
-1e-09
-1e-09
-9e-10
-1e-09
-1e-09
-1e-09
-9e-10
-1e-09
-1e-09
-9e-10
-9e-10
-9e-10
-1e-09
-1e-09
-1e-09
-1e-09
-1e-09
-1e-09
-9e-10
-9e-10
-9e-10

SCALARS	sig_33	float	1
LOOKUP_TABLE	default
-1e-09
-1e-09
-1e-09
-1e-09
-1e-09
-9e-10
-1e-09
-1e-09
-9e-10
-1e-09
-1e-09
-1e-09
-1e-09
-1e-09
-1e-09
-9e-10
-9e-10
-9e-10
-1e-09
-1e-09
-1e-09
-1e-09
-1e-09
-1e-09
-9e-10
-9e-10
-9e-10

SCALARS vonMises	float	1
LOOKUP_TABLE	default
0.0
0.0
0.0
0.0
0.0
0.0
0.0
0.0
0.0
0.0
0.0
0.0
0.0
0.0
0.0
0.0
0.0
0.0
0.0
0.0
0.0
0.0
0.0
0.0
0.0
0.0
0.0
