# vtk DataFile Version 2.0
Results
ASCII
DATASET UNSTRUCTURED_GRID
POINTS         27           float
0.0	0.0	0.0	
50.0	0.0	0.0	
100.0	0.0	0.0	
0.0	40.0	0.0	
50.0	40.0	0.0	
100.0	40.0	0.0	
0.0	80.0	0.0	
50.0	80.0	0.0	
100.0	80.0	0.0	
0.0	0.0	70.0	
50.0	0.0	70.0	
100.0	0.0	70.0	
0.0	40.0	70.0	
50.0	40.0	70.0	
100.0	40.0	70.0	
0.0	80.0	70.0	
50.0	80.0	70.0	
100.0	80.0	70.0	
0.0	0.0	140.0	
50.0	0.0	140.0	
100.0	0.0	140.0	
0.0	40.0	140.0	
50.0	40.0	140.0	
100.0	40.0	140.0	
0.0	80.0	140.0	
50.0	80.0	140.0	
100.0	80.0	140.0	

CELLS	8	72
 8	0	1	4	3	9	10	13	12	
 8	1	2	5	4	10	11	14	13	
 8	4	5	8	7	13	14	17	16	
 8	3	4	7	6	12	13	16	15	
 8	9	10	13	12	18	19	22	21	
 8	10	11	14	13	19	20	23	22	
 8	13	14	17	16	22	23	26	25	
 8	12	13	16	15	21	22	25	24	

CELL_TYPES	8
 12
 12
 12
 12
 12
 12
 12
 12

POINT_DATA	27
SCALARS	u1	float 1
LOOKUP_TABLE	default
0.0
-0.012
-0.024
0.0
-0.012
-0.024
0.0
-0.012
-0.024
0.0
-0.012
-0.024
-0.0
-0.012
-0.024
0.0
-0.012
-0.024
-0.0
-0.012
-0.024
-0.0
-0.012
-0.024
0.0
-0.012
-0.024

SCALARS	u2	float 1
LOOKUP_TABLE	default
0.0
0.0
0.0
-0.01
-0.01
-0.01
-0.019
-0.019
-0.019
0.0
0.0
0.0
-0.01
-0.01
-0.01
-0.019
-0.019
-0.019
-0.0
0.0
0.0
-0.01
-0.01
-0.01
-0.019
-0.019
-0.019

SCALARS	u3	float 1
LOOKUP_TABLE	default
0.0
0.0
0.0
0.0
0.0
0.0
0.0
0.0
0.0
0.038
0.038
0.038
0.038
0.038
0.038
0.038
0.038
0.038
0.075
0.075
0.075
0.075
0.075
0.075
0.075
0.075
0.075

SCALARS	u4	float 1
LOOKUP_TABLE	default
299.398
299.398
299.398
299.398
299.398
299.398
299.398
299.398
299.398
299.398
299.398
299.398
299.398
299.398
299.398
299.398
299.398
299.398
299.398
299.398
299.398
299.398
299.398
299.398
299.398
299.398
299.398

VECTORS	u 	float 
0.0	0.0	0.0
-0.0119418168	0.0	0.0
-0.0238836335	0.0	0.0
0.0	-0.0095534534	0.0
-0.0119418168	-0.0095534534	0.0
-0.0238836335	-0.0095534534	0.0
0.0	-0.0191069068	0.0
-0.0119418168	-0.0191069068	0.0
-0.0238836335	-0.0191069068	0.0
0.0	0.0	0.037511077
-0.0119418168	0.0	0.037511077
-0.0238836335	0.0	0.037511077
-0.0	-0.0095534534	0.037511077
-0.0119418168	-0.0095534534	0.037511077
-0.0238836335	-0.0095534534	0.037511077
0.0	-0.0191069068	0.037511077
-0.0119418168	-0.0191069068	0.037511077
-0.0238836335	-0.0191069068	0.037511077
-0.0	-0.0	0.0750221539
-0.0119418168	0.0	0.0750221539
-0.0238836335	0.0	0.0750221539
-0.0	-0.0095534534	0.0750221539
-0.0119418168	-0.0095534534	0.0750221539
-0.0238836335	-0.0095534534	0.0750221539
0.0	-0.0191069068	0.0750221539
-0.0119418168	-0.0191069068	0.0750221539
-0.0238836335	-0.0191069068	0.0750221539

VECTORS	v 	float 
0.0	0.0	0.0
-0.0223521061	0.0	0.0
-0.0447042121	0.0	0.0
0.0	-0.0178816848	0.0
-0.0223521061	-0.0178816848	0.0
-0.0447042121	-0.0178816848	0.0
0.0	-0.0357633697	0.0
-0.0223521061	-0.0357633697	0.0
-0.0447042121	-0.0357633697	0.0
-0.0	-0.0	0.076998445
-0.0223521061	-0.0	0.076998445
-0.0447042121	0.0	0.076998445
0.0	-0.0178816848	0.076998445
-0.0223521061	-0.0178816848	0.076998445
-0.0447042121	-0.0178816848	0.076998445
0.0	-0.0357633697	0.076998445
-0.0223521061	-0.0357633697	0.076998445
-0.0447042121	-0.0357633697	0.076998445
-0.0	0.0	0.15399689
-0.0223521061	0.0	0.15399689
-0.0447042121	-0.0	0.15399689
-0.0	-0.0178816848	0.15399689
-0.0223521061	-0.0178816848	0.15399689
-0.0447042121	-0.0178816848	0.15399689
-0.0	-0.0357633697	0.15399689
-0.0223521061	-0.0357633697	0.15399689
-0.0447042121	-0.0357633697	0.15399689

VECTORS	a 	float 
0.0	0.0	0.0
-8.8040172376	0.0	0.0
-17.6080344751	0.0	0.0
0.0	-7.04321379	0.0
-8.8040172376	-7.04321379	0.0
-17.6080344751	-7.0432137901	0.0
0.0	-14.0864275801	0.0
-8.8040172376	-14.0864275801	0.0
-17.6080344751	-14.0864275801	0.0
-0.0	0.0	30.3415227619
-8.8040172376	-0.0	30.3415227619
-17.6080344751	-0.0	30.3415227619
0.0	-7.04321379	30.3415227619
-8.8040172376	-7.04321379	30.3415227619
-17.6080344751	-7.0432137901	30.3415227619
0.0	-14.0864275801	30.3415227619
-8.8040172376	-14.0864275801	30.3415227619
-17.6080344751	-14.0864275801	30.3415227619
-0.0	0.0	60.6830455239
-8.8040172376	-0.0	60.6830455239
-17.6080344751	-0.0	60.6830455239
-0.0	-7.04321379	60.6830455239
-8.8040172376	-7.04321379	60.6830455239
-17.6080344751	-7.04321379	60.6830455239
-0.0	-14.0864275801	60.6830455239
-8.8040172376	-14.0864275801	60.6830455239
-17.6080344751	-14.0864275801	60.6830455239

SCALARS	theta	float 1
LOOKUP_TABLE	default
299.3979504204
299.3979504204
299.3979504204
299.3979504204
299.3979504204
299.3979504204
299.3979504204
299.3979504204
299.3979504204
299.3979504204
299.3979504204
299.3979504204
299.3979504204
299.3979504204
299.3979504204
299.3979504204
299.3979504204
299.3979504204
299.3979504204
299.3979504204
299.3979504204
299.3979504204
299.3979504204
299.3979504204
299.3979504204
299.3979504204
299.3979504204

SCALARS	sig_11	float	1
LOOKUP_TABLE	default
-2.3e-09
-2.3e-09
-2.3e-09
-2.3e-09
-2.3e-09
-2.3e-09
-2.3e-09
-2.3e-09
-2.3e-09
-2.3e-09
-2.3e-09
-2.3e-09
-2.3e-09
-2.3e-09
-2.3e-09
-2.3e-09
-2.3e-09
-2.3e-09
-2.4e-09
-2.3e-09
-2.3e-09
-2.4e-09
-2.4e-09
-2.3e-09
-2.3e-09
-2.3e-09
-2.3e-09

SCALARS	sig_22	float	1
LOOKUP_TABLE	default
-2.4e-09
-2.3e-09
-2.3e-09
-2.3e-09
-2.3e-09
-2.3e-09
-2.3e-09
-2.3e-09
-2.3e-09
-2.3e-09
-2.3e-09
-2.3e-09
-2.3e-09
-2.3e-09
-2.3e-09
-2.3e-09
-2.3e-09
-2.3e-09
-2.4e-09
-2.3e-09
-2.3e-09
-2.3e-09
-2.3e-09
-2.3e-09
-2.3e-09
-2.3e-09
-2.3e-09

SCALARS	sig_33	float	1
LOOKUP_TABLE	default
124.9927292042
124.9927292042
124.9927292042
124.9927292042
124.9927292042
124.9927292042
124.9927292042
124.9927292042
124.9927292042
124.9927292042
124.9927292041
124.9927292042
124.9927292042
124.9927292041
124.9927292042
124.9927292042
124.9927292042
124.9927292042
124.9927292041
124.9927292041
124.9927292041
124.9927292041
124.9927292041
124.9927292041
124.9927292042
124.9927292042
124.9927292042

SCALARS vonMises	float	1
LOOKUP_TABLE	default
88.3832064209
88.3832064209
88.3832064209
88.3832064209
88.3832064209
88.3832064209
88.3832064209
88.3832064209
88.3832064209
88.3832064209
88.3832064209
88.3832064209
88.3832064209
88.3832064209
88.3832064209
88.3832064209
88.3832064209
88.3832064209
88.3832064209
88.3832064209
88.3832064209
88.3832064209
88.3832064209
88.3832064209
88.3832064209
88.3832064209
88.3832064209
