# vtk DataFile Version 2.0
Results
ASCII
DATASET UNSTRUCTURED_GRID
POINTS         27           float
0.0	0.0	0.0	
50.0	0.0	0.0	
100.0	0.0	0.0	
0.0	40.0	0.0	
50.0	40.0	0.0	
100.0	40.0	0.0	
0.0	80.0	0.0	
50.0	80.0	0.0	
100.0	80.0	0.0	
0.0	0.0	70.0	
50.0	0.0	70.0	
100.0	0.0	70.0	
0.0	40.0	70.0	
50.0	40.0	70.0	
100.0	40.0	70.0	
0.0	80.0	70.0	
50.0	80.0	70.0	
100.0	80.0	70.0	
0.0	0.0	140.0	
50.0	0.0	140.0	
100.0	0.0	140.0	
0.0	40.0	140.0	
50.0	40.0	140.0	
100.0	40.0	140.0	
0.0	80.0	140.0	
50.0	80.0	140.0	
100.0	80.0	140.0	

CELLS	8	72
 8	0	1	4	3	9	10	13	12	
 8	1	2	5	4	10	11	14	13	
 8	4	5	8	7	13	14	17	16	
 8	3	4	7	6	12	13	16	15	
 8	9	10	13	12	18	19	22	21	
 8	10	11	14	13	19	20	23	22	
 8	13	14	17	16	22	23	26	25	
 8	12	13	16	15	21	22	25	24	

CELL_TYPES	8
 12
 12
 12
 12
 12
 12
 12
 12

POINT_DATA	27
SCALARS	u1	float 1
LOOKUP_TABLE	default
0.0
-0.012
-0.024
0.0
-0.012
-0.024
0.0
-0.012
-0.024
0.0
-0.012
-0.024
0.0
-0.012
-0.024
0.0
-0.012
-0.024
0.0
-0.012
-0.024
0.0
-0.012
-0.024
0.0
-0.012
-0.024

SCALARS	u2	float 1
LOOKUP_TABLE	default
0.0
0.0
0.0
-0.009
-0.009
-0.009
-0.019
-0.019
-0.019
0.0
-0.0
0.0
-0.009
-0.009
-0.009
-0.019
-0.019
-0.019
-0.0
0.0
-0.0
-0.009
-0.009
-0.009
-0.019
-0.019
-0.019

SCALARS	u3	float 1
LOOKUP_TABLE	default
0.0
0.0
0.0
0.0
0.0
0.0
0.0
0.0
0.0
0.038
0.038
0.038
0.038
0.038
0.038
0.038
0.038
0.038
0.075
0.075
0.075
0.075
0.075
0.075
0.075
0.075
0.075

SCALARS	u4	float 1
LOOKUP_TABLE	default
299.428
299.428
299.428
299.428
299.428
299.428
299.428
299.428
299.428
299.428
299.428
299.428
299.428
299.428
299.428
299.428
299.428
299.428
299.428
299.428
299.428
299.428
299.428
299.428
299.428
299.428
299.428

VECTORS	u 	float 
0.0	0.0	0.0
-0.0117897834	0.0	0.0
-0.0235795669	0.0	0.0
0.0	-0.0094318267	0.0
-0.0117897834	-0.0094318267	0.0
-0.0235795669	-0.0094318267	0.0
0.0	-0.0188636535	0.0
-0.0117897834	-0.0188636535	0.0
-0.0235795669	-0.0188636535	0.0
0.0	0.0	0.0377239233
-0.0117897834	-0.0	0.0377239233
-0.0235795669	0.0	0.0377239233
0.0	-0.0094318267	0.0377239233
-0.0117897834	-0.0094318267	0.0377239233
-0.0235795669	-0.0094318267	0.0377239233
0.0	-0.0188636535	0.0377239233
-0.0117897834	-0.0188636535	0.0377239233
-0.0235795669	-0.0188636535	0.0377239233
0.0	-0.0	0.0754478467
-0.0117897834	0.0	0.0754478467
-0.0235795669	-0.0	0.0754478467
0.0	-0.0094318267	0.0754478467
-0.0117897834	-0.0094318267	0.0754478467
-0.0235795669	-0.0094318267	0.0754478467
0.0	-0.0188636535	0.0754478467
-0.0117897834	-0.0188636535	0.0754478467
-0.0235795669	-0.0188636535	0.0754478467

VECTORS	v 	float 
0.0	0.0	0.0
-0.0223522976	0.0	0.0
-0.0447045953	0.0	0.0
0.0	-0.0178818381	0.0
-0.0223522976	-0.0178818381	0.0
-0.0447045953	-0.0178818381	0.0
0.0	-0.0357636762	0.0
-0.0223522976	-0.0357636762	0.0
-0.0447045953	-0.0357636762	0.0
-0.0	-0.0	0.0769981761
-0.0223522976	-0.0	0.0769981761
-0.0447045953	-0.0	0.0769981761
0.0	-0.0178818381	0.0769981761
-0.0223522976	-0.0178818381	0.0769981761
-0.0447045953	-0.0178818381	0.0769981761
0.0	-0.0357636762	0.0769981761
-0.0223522976	-0.0357636762	0.0769981761
-0.0447045953	-0.0357636762	0.0769981761
-0.0	0.0	0.1539963523
-0.0223522976	-0.0	0.1539963523
-0.0447045953	-0.0	0.1539963523
-0.0	-0.0178818381	0.1539963523
-0.0223522976	-0.0178818381	0.1539963523
-0.0447045953	-0.0178818381	0.1539963523
-0.0	-0.0357636762	0.1539963523
-0.0223522976	-0.0357636762	0.1539963523
-0.0447045953	-0.0357636762	0.1539963523

VECTORS	a 	float 
0.0	0.0	0.0
-7.0164490786	0.0	0.0
-14.0328981573	0.0	0.0
0.0	-5.6131592629	0.0
-7.0164490786	-5.6131592629	0.0
-14.0328981573	-5.6131592629	0.0
0.0	-11.2263185258	0.0
-7.0164490786	-11.2263185258	0.0
-14.0328981573	-11.2263185258	0.0
-0.0	0.0	24.1808060754
-7.0164490786	-0.0	24.1808060754
-14.0328981573	-0.0	24.1808060754
0.0	-5.6131592629	24.1808060754
-7.0164490786	-5.6131592629	24.1808060754
-14.0328981573	-5.6131592629	24.1808060754
0.0	-11.2263185258	24.1808060754
-7.0164490786	-11.2263185258	24.1808060754
-14.0328981573	-11.2263185258	24.1808060754
-0.0	0.0	48.3616121508
-7.0164490786	0.0	48.3616121508
-14.0328981573	-0.0	48.3616121508
-0.0	-5.6131592629	48.3616121508
-7.0164490786	-5.6131592629	48.3616121508
-14.0328981573	-5.6131592629	48.3616121508
-0.0	-11.2263185258	48.3616121508
-7.0164490786	-11.2263185258	48.3616121508
-14.0328981573	-11.2263185258	48.3616121508

SCALARS	theta	float 1
LOOKUP_TABLE	default
299.4283579932
299.4283579932
299.4283579932
299.4283579932
299.4283579932
299.4283579932
299.4283579932
299.4283579932
299.4283579932
299.4283579932
299.4283579932
299.4283579932
299.4283579932
299.4283579932
299.4283579932
299.4283579932
299.4283579932
299.4283579932
299.4283579932
299.4283579932
299.4283579932
299.4283579932
299.4283579932
299.4283579932
299.4283579932
299.4283579932
299.4283579932

SCALARS	sig_11	float	1
LOOKUP_TABLE	default
-2.3e-09
-2.3e-09
-2.3e-09
-2.3e-09
-2.3e-09
-2.3e-09
-2.3e-09
-2.3e-09
-2.3e-09
-2.3e-09
-2.3e-09
-2.3e-09
-2.3e-09
-2.3e-09
-2.3e-09
-2.3e-09
-2.3e-09
-2.3e-09
-2.3e-09
-2.3e-09
-2.3e-09
-2.4e-09
-2.3e-09
-2.3e-09
-2.3e-09
-2.3e-09
-2.3e-09

SCALARS	sig_22	float	1
LOOKUP_TABLE	default
-2.3e-09
-2.3e-09
-2.3e-09
-2.3e-09
-2.3e-09
-2.3e-09
-2.3e-09
-2.3e-09
-2.3e-09
-2.3e-09
-2.3e-09
-2.3e-09
-2.3e-09
-2.3e-09
-2.3e-09
-2.3e-09
-2.3e-09
-2.3e-09
-2.4e-09
-2.3e-09
-2.3e-09
-2.4e-09
-2.3e-09
-2.3e-09
-2.3e-09
-2.3e-09
-2.3e-09

SCALARS	sig_33	float	1
LOOKUP_TABLE	default
124.9915894557
124.9915894557
124.9915894557
124.9915894557
124.9915894557
124.9915894557
124.9915894557
124.9915894557
124.9915894557
124.9915894557
124.9915894557
124.9915894557
124.9915894557
124.9915894557
124.9915894557
124.9915894557
124.9915894557
124.9915894557
124.9915894557
124.9915894557
124.9915894557
124.9915894557
124.9915894557
124.9915894557
124.9915894557
124.9915894557
124.9915894557

SCALARS vonMises	float	1
LOOKUP_TABLE	default
88.382400497
88.382400497
88.382400497
88.382400497
88.382400497
88.382400497
88.382400497
88.382400497
88.382400497
88.382400497
88.382400497
88.382400497
88.382400497
88.382400497
88.382400497
88.382400497
88.382400497
88.382400497
88.382400497
88.382400497
88.382400497
88.3824004971
88.3824004971
88.3824004971
88.3824004971
88.3824004971
88.382400497
