# vtk DataFile Version 2.0
Results
ASCII
DATASET UNSTRUCTURED_GRID
POINTS         27           float
0.0	0.0	0.0	
50.0	0.0	0.0	
100.0	0.0	0.0	
0.0	40.0	0.0	
50.0	40.0	0.0	
100.0	40.0	0.0	
0.0	80.0	0.0	
50.0	80.0	0.0	
100.0	80.0	0.0	
0.0	0.0	70.0	
50.0	0.0	70.0	
100.0	0.0	70.0	
0.0	40.0	70.0	
50.0	40.0	70.0	
100.0	40.0	70.0	
0.0	80.0	70.0	
50.0	80.0	70.0	
100.0	80.0	70.0	
0.0	0.0	140.0	
50.0	0.0	140.0	
100.0	0.0	140.0	
0.0	40.0	140.0	
50.0	40.0	140.0	
100.0	40.0	140.0	
0.0	80.0	140.0	
50.0	80.0	140.0	
100.0	80.0	140.0	

CELLS	8	72
 8	0	1	4	3	9	10	13	12	
 8	1	2	5	4	10	11	14	13	
 8	4	5	8	7	13	14	17	16	
 8	3	4	7	6	12	13	16	15	
 8	9	10	13	12	18	19	22	21	
 8	10	11	14	13	19	20	23	22	
 8	13	14	17	16	22	23	26	25	
 8	12	13	16	15	21	22	25	24	

CELL_TYPES	8
 12
 12
 12
 12
 12
 12
 12
 12

POINT_DATA	27
SCALARS	u1	float 1
LOOKUP_TABLE	default
0.0
-0.011
-0.023
0.0
-0.011
-0.023
0.0
-0.011
-0.023
-0.0
-0.011
-0.023
-0.0
-0.011
-0.023
0.0
-0.011
-0.023
-0.0
-0.011
-0.023
-0.0
-0.011
-0.023
-0.0
-0.011
-0.023

SCALARS	u2	float 1
LOOKUP_TABLE	default
0.0
0.0
0.0
-0.009
-0.009
-0.009
-0.018
-0.018
-0.018
0.0
-0.0
-0.0
-0.009
-0.009
-0.009
-0.018
-0.018
-0.018
-0.0
0.0
-0.0
-0.009
-0.009
-0.009
-0.018
-0.018
-0.018

SCALARS	u3	float 1
LOOKUP_TABLE	default
0.0
0.0
0.0
0.0
0.0
0.0
0.0
0.0
0.0
0.038
0.038
0.038
0.038
0.038
0.038
0.038
0.038
0.038
0.077
0.077
0.077
0.077
0.077
0.077
0.077
0.077
0.077

SCALARS	u4	float 1
LOOKUP_TABLE	default
299.517
299.517
299.517
299.517
299.517
299.517
299.517
299.517
299.517
299.517
299.517
299.517
299.517
299.517
299.517
299.517
299.517
299.517
299.517
299.517
299.517
299.517
299.517
299.517
299.517
299.517
299.517

VECTORS	u 	float 
0.0	0.0	0.0
-0.0113488523	0.0	0.0
-0.0226977046	0.0	0.0
0.0	-0.0090790818	0.0
-0.0113488523	-0.0090790818	0.0
-0.0226977046	-0.0090790818	0.0
0.0	-0.0181581637	0.0
-0.0113488523	-0.0181581637	0.0
-0.0226977046	-0.0181581637	0.0
-0.0	0.0	0.038341226
-0.0113488523	-0.0	0.038341226
-0.0226977046	-0.0	0.038341226
-0.0	-0.0090790818	0.038341226
-0.0113488523	-0.0090790818	0.038341226
-0.0226977046	-0.0090790818	0.038341226
0.0	-0.0181581637	0.038341226
-0.0113488523	-0.0181581637	0.038341226
-0.0226977046	-0.0181581637	0.038341226
-0.0	-0.0	0.076682452
-0.0113488523	0.0	0.076682452
-0.0226977046	-0.0	0.076682452
-0.0	-0.0090790818	0.076682452
-0.0113488523	-0.0090790818	0.076682452
-0.0226977046	-0.0090790818	0.076682452
-0.0	-0.0181581637	0.076682452
-0.0113488523	-0.0181581637	0.076682452
-0.0226977046	-0.0181581637	0.076682452

VECTORS	v 	float 
0.0	0.0	0.0
-0.0223528531	0.0	0.0
-0.0447057062	0.0	0.0
0.0	-0.0178822825	0.0
-0.0223528531	-0.0178822825	0.0
-0.0447057062	-0.0178822825	0.0
0.0	-0.035764565	0.0
-0.0223528531	-0.035764565	0.0
-0.0447057062	-0.035764565	0.0
-0.0	0.0	0.0769973966
-0.0223528531	-0.0	0.0769973966
-0.0447057062	0.0	0.0769973966
0.0	-0.0178822825	0.0769973966
-0.0223528531	-0.0178822825	0.0769973966
-0.0447057062	-0.0178822825	0.0769973966
0.0	-0.035764565	0.0769973966
-0.0223528531	-0.035764565	0.0769973966
-0.0447057062	-0.035764565	0.0769973966
-0.0	0.0	0.1539947932
-0.0223528531	0.0	0.1539947932
-0.0447057062	-0.0	0.1539947932
0.0	-0.0178822825	0.1539947932
-0.0223528531	-0.0178822825	0.1539947932
-0.0447057062	-0.0178822825	0.1539947932
0.0	-0.035764565	0.1539947932
-0.0223528531	-0.035764565	0.1539947932
-0.0447057062	-0.035764565	0.1539947932

VECTORS	a 	float 
0.0	0.0	0.0
-1.8324148895	0.0	0.0
-3.664829779	0.0	0.0
0.0	-1.4659319116	0.0
-1.8324148895	-1.4659319116	0.0
-3.664829779	-1.4659319116	0.0
0.0	-2.9318638232	0.0
-1.8324148895	-2.9318638232	0.0
-3.664829779	-2.9318638232	0.0
-0.0	0.0	6.3148491174
-1.8324148895	-0.0	6.3148491174
-3.664829779	0.0	6.3148491174
-0.0	-1.4659319116	6.3148491174
-1.8324148895	-1.4659319116	6.3148491174
-3.664829779	-1.4659319116	6.3148491174
-0.0	-2.9318638232	6.3148491174
-1.8324148895	-2.9318638232	6.3148491174
-3.664829779	-2.9318638232	6.3148491174
-0.0	0.0	12.6296982347
-1.8324148895	0.0	12.6296982347
-3.664829779	-0.0	12.6296982347
-0.0	-1.4659319116	12.6296982347
-1.8324148895	-1.4659319116	12.6296982347
-3.664829779	-1.4659319116	12.6296982347
-0.0	-2.9318638232	12.6296982347
-1.8324148895	-2.9318638232	12.6296982347
-3.664829779	-2.9318638232	12.6296982347

SCALARS	theta	float 1
LOOKUP_TABLE	default
299.5165455915
299.5165455915
299.5165455915
299.5165455915
299.5165455915
299.5165455915
299.5165455915
299.5165455915
299.5165455915
299.5165455915
299.5165455915
299.5165455915
299.5165455915
299.5165455915
299.5165455915
299.5165455915
299.5165455915
299.5165455915
299.5165455915
299.5165455915
299.5165455915
299.5165455915
299.5165455915
299.5165455915
299.5165455915
299.5165455915
299.5165455915

SCALARS	sig_11	float	1
LOOKUP_TABLE	default
-2.3e-09
-2.3e-09
-2.3e-09
-2.3e-09
-2.3e-09
-2.3e-09
-2.3e-09
-2.3e-09
-2.4e-09
-2.4e-09
-2.3e-09
-2.4e-09
-2.3e-09
-2.3e-09
-2.4e-09
-2.3e-09
-2.3e-09
-2.4e-09
-2.4e-09
-2.3e-09
-2.3e-09
-2.3e-09
-2.3e-09
-2.3e-09
-2.3e-09
-2.3e-09
-2.4e-09

SCALARS	sig_22	float	1
LOOKUP_TABLE	default
-2.3e-09
-2.3e-09
-2.3e-09
-2.3e-09
-2.3e-09
-2.3e-09
-2.3e-09
-2.3e-09
-2.4e-09
-2.4e-09
-2.3e-09
-2.4e-09
-2.3e-09
-2.3e-09
-2.4e-09
-2.3e-09
-2.3e-09
-2.4e-09
-2.4e-09
-2.3e-09
-2.3e-09
-2.3e-09
-2.3e-09
-2.3e-09
-2.3e-09
-2.3e-09
-2.4e-09

SCALARS	sig_33	float	1
LOOKUP_TABLE	default
124.9882840185
124.9882840185
124.9882840185
124.9882840185
124.9882840185
124.9882840185
124.9882840185
124.9882840185
124.9882840185
124.9882840185
124.9882840185
124.9882840185
124.9882840185
124.9882840185
124.9882840185
124.9882840185
124.9882840185
124.9882840185
124.9882840185
124.9882840185
124.9882840185
124.9882840185
124.9882840185
124.9882840185
124.9882840185
124.9882840185
124.9882840185

SCALARS vonMises	float	1
LOOKUP_TABLE	default
88.3800632
88.3800632
88.3800632
88.3800632
88.3800632
88.3800632
88.3800632
88.3800632
88.3800632
88.3800632
88.3800632
88.3800632
88.3800632
88.3800632
88.3800632
88.3800632
88.3800632
88.3800632
88.3800632
88.3800632
88.3800632
88.3800632
88.3800632
88.3800632
88.3800632
88.3800632
88.3800632
