# vtk DataFile Version 2.0
Results
ASCII
DATASET UNSTRUCTURED_GRID
POINTS         27           float
0.0	0.0	0.0	
50.0	0.0	0.0	
100.0	0.0	0.0	
0.0	40.0	0.0	
50.0	40.0	0.0	
100.0	40.0	0.0	
0.0	80.0	0.0	
50.0	80.0	0.0	
100.0	80.0	0.0	
0.0	0.0	70.0	
50.0	0.0	70.0	
100.0	0.0	70.0	
0.0	40.0	70.0	
50.0	40.0	70.0	
100.0	40.0	70.0	
0.0	80.0	70.0	
50.0	80.0	70.0	
100.0	80.0	70.0	
0.0	0.0	140.0	
50.0	0.0	140.0	
100.0	0.0	140.0	
0.0	40.0	140.0	
50.0	40.0	140.0	
100.0	40.0	140.0	
0.0	80.0	140.0	
50.0	80.0	140.0	
100.0	80.0	140.0	

CELLS	8	72
 8	0	1	4	3	9	10	13	12	
 8	1	2	5	4	10	11	14	13	
 8	4	5	8	7	13	14	17	16	
 8	3	4	7	6	12	13	16	15	
 8	9	10	13	12	18	19	22	21	
 8	10	11	14	13	19	20	23	22	
 8	13	14	17	16	22	23	26	25	
 8	12	13	16	15	21	22	25	24	

CELL_TYPES	8
 12
 12
 12
 12
 12
 12
 12
 12

POINT_DATA	27
SCALARS	u1	float 1
LOOKUP_TABLE	default
0.0
-0.012
-0.024
0.0
-0.012
-0.024
0.0
-0.012
-0.024
0.0
-0.012
-0.024
0.0
-0.012
-0.024
-0.0
-0.012
-0.024
0.0
-0.012
-0.024
0.0
-0.012
-0.024
-0.0
-0.012
-0.024

SCALARS	u2	float 1
LOOKUP_TABLE	default
0.0
0.0
0.0
-0.01
-0.01
-0.01
-0.019
-0.019
-0.019
-0.0
0.0
0.0
-0.01
-0.01
-0.01
-0.019
-0.019
-0.019
0.0
0.0
0.0
-0.01
-0.01
-0.01
-0.019
-0.019
-0.019

SCALARS	u3	float 1
LOOKUP_TABLE	default
0.0
0.0
0.0
0.0
0.0
0.0
0.0
0.0
0.0
0.038
0.038
0.038
0.038
0.038
0.038
0.038
0.038
0.038
0.075
0.075
0.075
0.075
0.075
0.075
0.075
0.075
0.075

SCALARS	u4	float 1
LOOKUP_TABLE	default
299.409
299.409
299.409
299.409
299.409
299.409
299.409
299.409
299.409
299.409
299.409
299.409
299.409
299.409
299.409
299.409
299.409
299.409
299.409
299.409
299.409
299.409
299.409
299.409
299.409
299.409
299.409

VECTORS	u 	float 
0.0	0.0	0.0
-0.0118886109	0.0	0.0
-0.0237772217	0.0	0.0
0.0	-0.0095108887	0.0
-0.0118886109	-0.0095108887	0.0
-0.0237772217	-0.0095108887	0.0
0.0	-0.0190217774	0.0
-0.0118886109	-0.0190217774	0.0
-0.0237772217	-0.0190217774	0.0
0.0	-0.0	0.0375855651
-0.0118886109	0.0	0.0375855651
-0.0237772217	0.0	0.0375855651
0.0	-0.0095108887	0.0375855651
-0.0118886109	-0.0095108887	0.0375855651
-0.0237772217	-0.0095108887	0.0375855651
-0.0	-0.0190217774	0.0375855651
-0.0118886109	-0.0190217774	0.0375855651
-0.0237772217	-0.0190217774	0.0375855651
0.0	0.0	0.0751711302
-0.0118886109	0.0	0.0751711302
-0.0237772217	0.0	0.0751711302
0.0	-0.0095108887	0.0751711302
-0.0118886109	-0.0095108887	0.0751711302
-0.0237772217	-0.0095108887	0.0751711302
-0.0	-0.0190217774	0.0751711302
-0.0118886109	-0.0190217774	0.0751711302
-0.0237772217	-0.0190217774	0.0751711302

VECTORS	v 	float 
0.0	0.0	0.0
0.0223369735	0.0	0.0
0.044673947	0.0	0.0
0.0	0.0178695788	0.0
0.0223369735	0.0178695788	0.0
0.044673947	0.0178695788	0.0
0.0	0.0357391576	0.0
0.0223369735	0.0357391576	0.0
0.044673947	0.0357391576	0.0
0.0	0.0	-0.0770196468
0.0223369735	0.0	-0.0770196468
0.044673947	0.0	-0.0770196468
-0.0	0.0178695788	-0.0770196468
0.0223369735	0.0178695788	-0.0770196468
0.044673947	0.0178695788	-0.0770196468
-0.0	0.0357391576	-0.0770196468
0.0223369735	0.0357391576	-0.0770196468
0.044673947	0.0357391576	-0.0770196468
0.0	-0.0	-0.1540392936
0.0223369735	0.0	-0.1540392936
0.044673947	0.0	-0.1540392936
0.0	0.0178695788	-0.1540392936
0.0223369735	0.0178695788	-0.1540392936
0.044673947	0.0178695788	-0.1540392936
0.0	0.0357391576	-0.1540392936
0.0223369735	0.0357391576	-0.1540392936
0.044673947	0.0357391576	-0.1540392936

VECTORS	a 	float 
0.0	0.0	0.0
8.1783701226	0.0	0.0
16.3567402453	0.0	0.0
0.0	6.5426960981	0.0
8.1783701226	6.5426960981	0.0
16.3567402453	6.5426960981	0.0
0.0	13.0853921962	0.0
8.1783701227	13.0853921962	0.0
16.3567402453	13.0853921962	0.0
0.0	-0.0	-28.1852694787
8.1783701227	0.0	-28.1852694787
16.3567402453	0.0	-28.1852694787
-0.0	6.5426960981	-28.1852694787
8.1783701227	6.5426960981	-28.1852694787
16.3567402453	6.5426960981	-28.1852694787
-0.0	13.0853921962	-28.1852694787
8.1783701227	13.0853921962	-28.1852694787
16.3567402453	13.0853921962	-28.1852694787
0.0	-0.0	-56.3705389575
8.1783701227	0.0	-56.3705389575
16.3567402453	0.0	-56.3705389575
0.0	6.5426960981	-56.3705389575
8.1783701227	6.5426960981	-56.3705389575
16.3567402453	6.5426960981	-56.3705389575
0.0	13.0853921962	-56.3705389575
8.1783701227	13.0853921962	-56.3705389575
16.3567402453	13.0853921962	-56.3705389575

SCALARS	theta	float 1
LOOKUP_TABLE	default
299.4085919414
299.4085919414
299.4085919414
299.4085919414
299.4085919414
299.4085919414
299.4085919414
299.4085919414
299.4085919414
299.4085919414
299.4085919414
299.4085919414
299.4085919414
299.4085919414
299.4085919414
299.4085919414
299.4085919414
299.4085919414
299.4085919414
299.4085919414
299.4085919414
299.4085919414
299.4085919414
299.4085919414
299.4085919414
299.4085919414
299.4085919414

SCALARS	sig_11	float	1
LOOKUP_TABLE	default
-2.4e-09
-2.4e-09
-2.3e-09
-2.4e-09
-2.4e-09
-2.3e-09
-2.3e-09
-2.4e-09
-2.3e-09
-2.3e-09
-2.3e-09
-2.3e-09
-2.3e-09
-2.3e-09
-2.3e-09
-2.4e-09
-2.4e-09
-2.4e-09
-2.3e-09
-2.3e-09
-2.3e-09
-2.3e-09
-2.3e-09
-2.3e-09
-2.3e-09
-2.4e-09
-2.4e-09

SCALARS	sig_22	float	1
LOOKUP_TABLE	default
-2.3e-09
-2.3e-09
-2.4e-09
-2.3e-09
-2.3e-09
-2.4e-09
-2.3e-09
-2.4e-09
-2.3e-09
-2.4e-09
-2.4e-09
-2.4e-09
-2.3e-09
-2.4e-09
-2.3e-09
-2.3e-09
-2.4e-09
-2.3e-09
-2.4e-09
-2.4e-09
-2.4e-09
-2.4e-09
-2.4e-09
-2.4e-09
-2.4e-09
-2.3e-09
-2.4e-09

SCALARS	sig_33	float	1
LOOKUP_TABLE	default
124.9923302574
124.9923302574
124.9923302574
124.9923302574
124.9923302574
124.9923302574
124.9923302574
124.9923302574
124.9923302574
124.9923302574
124.9923302574
124.9923302574
124.9923302574
124.9923302574
124.9923302574
124.9923302574
124.9923302574
124.9923302574
124.9923302574
124.9923302574
124.9923302574
124.9923302574
124.9923302574
124.9923302574
124.9923302574
124.9923302574
124.9923302574

SCALARS vonMises	float	1
LOOKUP_TABLE	default
88.382924323
88.382924323
88.382924323
88.382924323
88.382924323
88.382924323
88.382924323
88.382924323
88.382924323
88.382924323
88.382924323
88.382924323
88.382924323
88.382924323
88.382924323
88.382924323
88.382924323
88.382924323
88.382924323
88.382924323
88.382924323
88.382924323
88.382924323
88.382924323
88.382924323
88.382924323
88.382924323
