# vtk DataFile Version 2.0
Results
ASCII
DATASET UNSTRUCTURED_GRID
POINTS         27           float
0.0	0.0	0.0	
50.0	0.0	0.0	
100.0	0.0	0.0	
0.0	40.0	0.0	
50.0	40.0	0.0	
100.0	40.0	0.0	
0.0	80.0	0.0	
50.0	80.0	0.0	
100.0	80.0	0.0	
0.0	0.0	70.0	
50.0	0.0	70.0	
100.0	0.0	70.0	
0.0	40.0	70.0	
50.0	40.0	70.0	
100.0	40.0	70.0	
0.0	80.0	70.0	
50.0	80.0	70.0	
100.0	80.0	70.0	
0.0	0.0	140.0	
50.0	0.0	140.0	
100.0	0.0	140.0	
0.0	40.0	140.0	
50.0	40.0	140.0	
100.0	40.0	140.0	
0.0	80.0	140.0	
50.0	80.0	140.0	
100.0	80.0	140.0	

CELLS	8	72
 8	0	1	4	3	9	10	13	12	
 8	1	2	5	4	10	11	14	13	
 8	4	5	8	7	13	14	17	16	
 8	3	4	7	6	12	13	16	15	
 8	9	10	13	12	18	19	22	21	
 8	10	11	14	13	19	20	23	22	
 8	13	14	17	16	22	23	26	25	
 8	12	13	16	15	21	22	25	24	

CELL_TYPES	8
 12
 12
 12
 12
 12
 12
 12
 12

POINT_DATA	27
SCALARS	u1	float 1
LOOKUP_TABLE	default
0.0
-0.012
-0.024
0.0
-0.012
-0.024
0.0
-0.012
-0.024
0.0
-0.012
-0.024
-0.0
-0.012
-0.024
-0.0
-0.012
-0.024
-0.0
-0.012
-0.024
-0.0
-0.012
-0.024
-0.0
-0.012
-0.024

SCALARS	u2	float 1
LOOKUP_TABLE	default
0.0
0.0
0.0
-0.01
-0.01
-0.01
-0.019
-0.019
-0.019
0.0
0.0
0.0
-0.01
-0.01
-0.01
-0.019
-0.019
-0.019
0.0
0.0
0.0
-0.01
-0.01
-0.01
-0.019
-0.019
-0.019

SCALARS	u3	float 1
LOOKUP_TABLE	default
0.0
0.0
0.0
0.0
0.0
0.0
0.0
0.0
0.0
0.038
0.038
0.038
0.038
0.038
0.038
0.038
0.038
0.038
0.075
0.075
0.075
0.075
0.075
0.075
0.075
0.075
0.075

SCALARS	u4	float 1
LOOKUP_TABLE	default
299.407
299.407
299.407
299.407
299.407
299.407
299.407
299.407
299.407
299.407
299.407
299.407
299.407
299.407
299.407
299.407
299.407
299.407
299.407
299.407
299.407
299.407
299.407
299.407
299.407
299.407
299.407

VECTORS	u 	float 
0.0	0.0	0.0
-0.0118962074	0.0	0.0
-0.0237924148	0.0	0.0
0.0	-0.0095169659	0.0
-0.0118962074	-0.0095169659	0.0
-0.0237924148	-0.0095169659	0.0
0.0	-0.0190339319	0.0
-0.0118962074	-0.0190339319	0.0
-0.0237924148	-0.0190339319	0.0
0.0	0.0	0.03757493
-0.0118962074	0.0	0.03757493
-0.0237924148	0.0	0.03757493
-0.0	-0.0095169659	0.03757493
-0.0118962074	-0.0095169659	0.03757493
-0.0237924148	-0.0095169659	0.03757493
-0.0	-0.0190339319	0.03757493
-0.0118962074	-0.0190339319	0.03757493
-0.0237924148	-0.0190339319	0.03757493
-0.0	0.0	0.07514986
-0.0118962074	0.0	0.07514986
-0.0237924148	0.0	0.07514986
-0.0	-0.0095169659	0.07514986
-0.0118962074	-0.0095169659	0.07514986
-0.0237924148	-0.0095169659	0.07514986
-0.0	-0.0190339319	0.07514986
-0.0118962074	-0.0190339319	0.07514986
-0.0237924148	-0.0190339319	0.07514986

VECTORS	v 	float 
0.0	0.0	0.0
-0.0223521635	0.0	0.0
-0.0447043271	0.0	0.0
0.0	-0.0178817308	0.0
-0.0223521635	-0.0178817308	0.0
-0.0447043271	-0.0178817308	0.0
0.0	-0.0357634616	0.0
-0.0223521635	-0.0357634616	0.0
-0.0447043271	-0.0357634616	0.0
-0.0	-0.0	0.0769983643
-0.0223521635	-0.0	0.0769983643
-0.0447043271	-0.0	0.0769983643
0.0	-0.0178817308	0.0769983643
-0.0223521635	-0.0178817308	0.0769983643
-0.0447043271	-0.0178817308	0.0769983643
0.0	-0.0357634616	0.0769983643
-0.0223521635	-0.0357634616	0.0769983643
-0.0447043271	-0.0357634616	0.0769983643
-0.0	0.0	0.1539967286
-0.0223521635	-0.0	0.1539967286
-0.0447043271	-0.0	0.1539967286
-0.0	-0.0178817308	0.1539967286
-0.0223521635	-0.0178817308	0.1539967286
-0.0447043271	-0.0178817308	0.1539967286
-0.0	-0.0357634616	0.1539967286
-0.0223521635	-0.0357634616	0.1539967286
-0.0447043271	-0.0357634616	0.1539967286

VECTORS	a 	float 
0.0	0.0	0.0
-8.2677483967	0.0	0.0
-16.5354967934	0.0	0.0
0.0	-6.6141987173	0.0
-8.2677483967	-6.6141987173	0.0
-16.5354967933	-6.6141987173	0.0
0.0	-13.2283974347	0.0
-8.2677483967	-13.2283974347	0.0
-16.5354967933	-13.2283974347	0.0
-0.0	0.0	28.493305501
-8.2677483967	-0.0	28.493305501
-16.5354967933	-0.0	28.493305501
0.0	-6.6141987173	28.493305501
-8.2677483967	-6.6141987173	28.493305501
-16.5354967933	-6.6141987173	28.493305501
0.0	-13.2283974347	28.493305501
-8.2677483967	-13.2283974347	28.493305501
-16.5354967934	-13.2283974347	28.493305501
-0.0	0.0	56.986611002
-8.2677483967	-0.0	56.986611002
-16.5354967934	-0.0	56.986611002
-0.0	-6.6141987173	56.986611002
-8.2677483967	-6.6141987173	56.986611002
-16.5354967934	-6.6141987173	56.986611002
-0.0	-13.2283974347	56.986611002
-8.2677483967	-13.2283974347	56.986611002
-16.5354967934	-13.2283974347	56.986611002

SCALARS	theta	float 1
LOOKUP_TABLE	default
299.4070725876
299.4070725876
299.4070725876
299.4070725876
299.4070725876
299.4070725876
299.4070725876
299.4070725876
299.4070725876
299.4070725876
299.4070725876
299.4070725876
299.4070725876
299.4070725876
299.4070725876
299.4070725876
299.4070725876
299.4070725876
299.4070725876
299.4070725876
299.4070725876
299.4070725876
299.4070725876
299.4070725876
299.4070725876
299.4070725876
299.4070725876

SCALARS	sig_11	float	1
LOOKUP_TABLE	default
-2.3e-09
-2.3e-09
-2.3e-09
-2.3e-09
-2.3e-09
-2.3e-09
-2.3e-09
-2.3e-09
-2.3e-09
-2.3e-09
-2.3e-09
-2.3e-09
-2.3e-09
-2.3e-09
-2.3e-09
-2.3e-09
-2.3e-09
-2.3e-09
-2.3e-09
-2.3e-09
-2.3e-09
-2.3e-09
-2.3e-09
-2.3e-09
-2.3e-09
-2.3e-09
-2.3e-09

SCALARS	sig_22	float	1
LOOKUP_TABLE	default
-2.3e-09
-2.3e-09
-2.3e-09
-2.3e-09
-2.3e-09
-2.3e-09
-2.3e-09
-2.3e-09
-2.3e-09
-2.3e-09
-2.3e-09
-2.3e-09
-2.3e-09
-2.3e-09
-2.3e-09
-2.3e-09
-2.3e-09
-2.3e-09
-2.3e-09
-2.3e-09
-2.3e-09
-2.3e-09
-2.3e-09
-2.3e-09
-2.3e-09
-2.3e-09
-2.3e-09

SCALARS	sig_33	float	1
LOOKUP_TABLE	default
124.9923872827
124.9923872827
124.9923872827
124.9923872827
124.9923872827
124.9923872827
124.9923872827
124.9923872827
124.9923872827
124.9923872827
124.9923872827
124.9923872827
124.9923872827
124.9923872827
124.9923872827
124.9923872827
124.9923872827
124.9923872827
124.9923872827
124.9923872827
124.9923872827
124.9923872827
124.9923872827
124.9923872827
124.9923872827
124.9923872827
124.9923872827

SCALARS vonMises	float	1
LOOKUP_TABLE	default
88.3829646459
88.3829646459
88.3829646459
88.3829646459
88.3829646459
88.3829646459
88.3829646459
88.3829646459
88.3829646459
88.3829646459
88.3829646459
88.3829646459
88.3829646459
88.3829646459
88.3829646459
88.382964646
88.382964646
88.3829646459
88.3829646459
88.3829646459
88.3829646459
88.382964646
88.382964646
88.3829646459
88.382964646
88.382964646
88.382964646
