# vtk DataFile Version 2.0
Results
ASCII
DATASET UNSTRUCTURED_GRID
POINTS         27           float
0.0	0.0	0.0	
50.0	0.0	0.0	
100.0	0.0	0.0	
0.0	40.0	0.0	
50.0	40.0	0.0	
100.0	40.0	0.0	
0.0	80.0	0.0	
50.0	80.0	0.0	
100.0	80.0	0.0	
0.0	0.0	70.0	
50.0	0.0	70.0	
100.0	0.0	70.0	
0.0	40.0	70.0	
50.0	40.0	70.0	
100.0	40.0	70.0	
0.0	80.0	70.0	
50.0	80.0	70.0	
100.0	80.0	70.0	
0.0	0.0	140.0	
50.0	0.0	140.0	
100.0	0.0	140.0	
0.0	40.0	140.0	
50.0	40.0	140.0	
100.0	40.0	140.0	
0.0	80.0	140.0	
50.0	80.0	140.0	
100.0	80.0	140.0	

CELLS	8	72
 8	0	1	4	3	9	10	13	12	
 8	1	2	5	4	10	11	14	13	
 8	4	5	8	7	13	14	17	16	
 8	3	4	7	6	12	13	16	15	
 8	9	10	13	12	18	19	22	21	
 8	10	11	14	13	19	20	23	22	
 8	13	14	17	16	22	23	26	25	
 8	12	13	16	15	21	22	25	24	

CELL_TYPES	8
 12
 12
 12
 12
 12
 12
 12
 12

POINT_DATA	27
SCALARS	u1	float 1
LOOKUP_TABLE	default
0.0
-0.011
-0.022
0.0
-0.011
-0.022
0.0
-0.011
-0.022
-0.0
-0.011
-0.022
0.0
-0.011
-0.022
-0.0
-0.011
-0.022
-0.0
-0.011
-0.022
-0.0
-0.011
-0.022
-0.0
-0.011
-0.022

SCALARS	u2	float 1
LOOKUP_TABLE	default
0.0
0.0
0.0
-0.009
-0.009
-0.009
-0.018
-0.018
-0.018
0.0
-0.0
-0.0
-0.009
-0.009
-0.009
-0.018
-0.018
-0.018
-0.0
-0.0
-0.0
-0.009
-0.009
-0.009
-0.018
-0.018
-0.018

SCALARS	u3	float 1
LOOKUP_TABLE	default
0.0
0.0
0.0
0.0
0.0
0.0
0.0
0.0
0.0
0.039
0.039
0.039
0.039
0.039
0.039
0.039
0.039
0.039
0.077
0.077
0.077
0.077
0.077
0.077
0.077
0.077
0.077

SCALARS	u4	float 1
LOOKUP_TABLE	default
299.544
299.544
299.544
299.544
299.544
299.544
299.544
299.544
299.544
299.544
299.544
299.544
299.544
299.544
299.544
299.544
299.544
299.544
299.544
299.544
299.544
299.544
299.544
299.544
299.544
299.544
299.544

VECTORS	u 	float 
0.0	0.0	0.0
-0.0112120012	0.0	0.0
-0.0224240024	0.0	0.0
0.0	-0.008969601	0.0
-0.0112120012	-0.008969601	0.0
-0.0224240024	-0.008969601	0.0
0.0	-0.0179392019	0.0
-0.0112120012	-0.0179392019	0.0
-0.0224240024	-0.0179392019	0.0
-0.0	0.0	0.0385328172
-0.0112120012	-0.0	0.0385328172
-0.0224240024	-0.0	0.0385328172
0.0	-0.008969601	0.0385328172
-0.0112120012	-0.008969601	0.0385328172
-0.0224240024	-0.008969601	0.0385328172
-0.0	-0.0179392019	0.0385328172
-0.0112120012	-0.0179392019	0.0385328172
-0.0224240024	-0.0179392019	0.0385328172
-0.0	-0.0	0.0770656344
-0.0112120012	-0.0	0.0770656344
-0.0224240024	-0.0	0.0770656344
-0.0	-0.008969601	0.0770656344
-0.0112120012	-0.008969601	0.0770656344
-0.0224240024	-0.008969601	0.0770656344
-0.0	-0.0179392019	0.0770656344
-0.0112120012	-0.0179392019	0.0770656344
-0.0224240024	-0.0179392019	0.0770656344

VECTORS	v 	float 
0.0	0.0	0.0
-0.0223530255	0.0	0.0
-0.0447060509	0.0	0.0
0.0	-0.0178824204	0.0
-0.0223530255	-0.0178824204	0.0
-0.0447060509	-0.0178824204	0.0
0.0	-0.0357648408	0.0
-0.0223530255	-0.0357648408	0.0
-0.0447060509	-0.0357648408	0.0
-0.0	0.0	0.0769971547
-0.0223530255	-0.0	0.0769971547
-0.0447060509	0.0	0.0769971547
-0.0	-0.0178824204	0.0769971547
-0.0223530255	-0.0178824204	0.0769971547
-0.0447060509	-0.0178824204	0.0769971547
-0.0	-0.0357648408	0.0769971547
-0.0223530255	-0.0357648408	0.0769971547
-0.0447060509	-0.0357648408	0.0769971547
-0.0	0.0	0.1539943095
-0.0223530255	-0.0	0.1539943095
-0.0447060509	-0.0	0.1539943095
-0.0	-0.0178824204	0.1539943095
-0.0223530255	-0.0178824204	0.1539943095
-0.0447060509	-0.0178824204	0.1539943095
-0.0	-0.0357648408	0.1539943095
-0.0223530255	-0.0357648408	0.1539943095
-0.0447060509	-0.0357648408	0.1539943095

VECTORS	a 	float 
0.0	0.0	0.0
-0.2235505313	0.0	0.0
-0.4471010627	0.0	0.0
0.0	-0.1788404251	0.0
-0.2235505313	-0.1788404251	0.0
-0.4471010627	-0.1788404251	0.0
0.0	-0.3576808502	0.0
-0.2235505313	-0.3576808502	0.0
-0.4471010627	-0.3576808502	0.0
-0.0	0.0	0.7702785002
-0.2235505313	-0.0	0.7702785002
-0.4471010627	0.0	0.7702785002
-0.0	-0.1788404251	0.7702785002
-0.2235505313	-0.1788404251	0.7702785002
-0.4471010627	-0.1788404251	0.7702785002
-0.0	-0.3576808502	0.7702785002
-0.2235505313	-0.3576808502	0.7702785002
-0.4471010627	-0.3576808502	0.7702785002
-0.0	0.0	1.5405570005
-0.2235505313	-0.0	1.5405570005
-0.4471010627	-0.0	1.5405570005
-0.0	-0.1788404251	1.5405570005
-0.2235505313	-0.1788404251	1.5405570005
-0.4471010627	-0.1788404251	1.5405570005
-0.0	-0.3576808502	1.5405570005
-0.2235505313	-0.3576808502	1.5405570005
-0.4471010627	-0.3576808502	1.5405570005

SCALARS	theta	float 1
LOOKUP_TABLE	default
299.5439158613
299.5439158613
299.5439158613
299.5439158613
299.5439158613
299.5439158613
299.5439158613
299.5439158613
299.5439158613
299.5439158613
299.5439158613
299.5439158613
299.5439158613
299.5439158613
299.5439158613
299.5439158613
299.5439158613
299.5439158613
299.5439158613
299.5439158613
299.5439158613
299.5439158613
299.5439158613
299.5439158613
299.5439158613
299.5439158613
299.5439158613

SCALARS	sig_11	float	1
LOOKUP_TABLE	default
-2.3e-09
-2.3e-09
-2.3e-09
-2.3e-09
-2.3e-09
-2.3e-09
-2.3e-09
-2.3e-09
-2.3e-09
-2.3e-09
-2.3e-09
-2.3e-09
-2.3e-09
-2.3e-09
-2.3e-09
-2.3e-09
-2.3e-09
-2.3e-09
-2.3e-09
-2.3e-09
-2.3e-09
-2.3e-09
-2.3e-09
-2.3e-09
-2.3e-09
-2.3e-09
-2.3e-09

SCALARS	sig_22	float	1
LOOKUP_TABLE	default
-2.3e-09
-2.3e-09
-2.3e-09
-2.3e-09
-2.3e-09
-2.3e-09
-2.3e-09
-2.3e-09
-2.3e-09
-2.3e-09
-2.3e-09
-2.3e-09
-2.3e-09
-2.3e-09
-2.3e-09
-2.3e-09
-2.3e-09
-2.3e-09
-2.3e-09
-2.3e-09
-2.3e-09
-2.3e-09
-2.3e-09
-2.3e-09
-2.3e-09
-2.3e-09
-2.3e-09

SCALARS	sig_33	float	1
LOOKUP_TABLE	default
124.9872581212
124.9872581212
124.9872581212
124.9872581212
124.9872581212
124.9872581212
124.9872581212
124.9872581212
124.9872581212
124.9872581212
124.9872581212
124.9872581212
124.9872581212
124.9872581212
124.9872581212
124.9872581212
124.9872581212
124.9872581212
124.9872581212
124.9872581212
124.9872581212
124.9872581212
124.9872581212
124.9872581212
124.9872581212
124.9872581212
124.9872581212

SCALARS vonMises	float	1
LOOKUP_TABLE	default
88.379337781
88.379337781
88.379337781
88.379337781
88.379337781
88.379337781
88.379337781
88.379337781
88.379337781
88.379337781
88.379337781
88.379337781
88.379337781
88.379337781
88.379337781
88.379337781
88.379337781
88.379337781
88.379337781
88.379337781
88.379337781
88.379337781
88.379337781
88.379337781
88.379337781
88.379337781
88.379337781
