# vtk DataFile Version 2.0
Results
ASCII
DATASET UNSTRUCTURED_GRID
POINTS         27           float
0.0	0.0	0.0	
50.0	0.0	0.0	
100.0	0.0	0.0	
0.0	40.0	0.0	
50.0	40.0	0.0	
100.0	40.0	0.0	
0.0	80.0	0.0	
50.0	80.0	0.0	
100.0	80.0	0.0	
0.0	0.0	70.0	
50.0	0.0	70.0	
100.0	0.0	70.0	
0.0	40.0	70.0	
50.0	40.0	70.0	
100.0	40.0	70.0	
0.0	80.0	70.0	
50.0	80.0	70.0	
100.0	80.0	70.0	
0.0	0.0	140.0	
50.0	0.0	140.0	
100.0	0.0	140.0	
0.0	40.0	140.0	
50.0	40.0	140.0	
100.0	40.0	140.0	
0.0	80.0	140.0	
50.0	80.0	140.0	
100.0	80.0	140.0	

CELLS	8	72
 8	0	1	4	3	9	10	13	12	
 8	1	2	5	4	10	11	14	13	
 8	4	5	8	7	13	14	17	16	
 8	3	4	7	6	12	13	16	15	
 8	9	10	13	12	18	19	22	21	
 8	10	11	14	13	19	20	23	22	
 8	13	14	17	16	22	23	26	25	
 8	12	13	16	15	21	22	25	24	

CELL_TYPES	8
 12
 12
 12
 12
 12
 12
 12
 12

POINT_DATA	27
SCALARS	u1	float 1
LOOKUP_TABLE	default
0.0
-0.012
-0.023
0.0
-0.012
-0.023
0.0
-0.012
-0.023
0.0
-0.012
-0.023
0.0
-0.012
-0.023
0.0
-0.012
-0.023
0.0
-0.012
-0.023
0.0
-0.012
-0.023
0.0
-0.012
-0.023

SCALARS	u2	float 1
LOOKUP_TABLE	default
0.0
0.0
0.0
-0.009
-0.009
-0.009
-0.019
-0.019
-0.019
0.0
0.0
0.0
-0.009
-0.009
-0.009
-0.019
-0.019
-0.019
0.0
-0.0
0.0
-0.009
-0.009
-0.009
-0.019
-0.019
-0.019

SCALARS	u3	float 1
LOOKUP_TABLE	default
0.0
0.0
0.0
0.0
0.0
0.0
0.0
0.0
0.0
0.038
0.038
0.038
0.038
0.038
0.038
0.038
0.038
0.038
0.076
0.076
0.076
0.076
0.076
0.076
0.076
0.076
0.076

SCALARS	u4	float 1
LOOKUP_TABLE	default
299.466
299.466
299.466
299.466
299.466
299.466
299.466
299.466
299.466
299.466
299.466
299.466
299.466
299.466
299.466
299.466
299.466
299.466
299.466
299.466
299.466
299.466
299.466
299.466
299.466
299.466
299.466

VECTORS	u 	float 
0.0	0.0	0.0
-0.0115997383	0.0	0.0
-0.0231994765	0.0	0.0
0.0	-0.0092797906	0.0
-0.0115997383	-0.0092797906	0.0
-0.0231994765	-0.0092797906	0.0
0.0	-0.0185595812	0.0
-0.0115997383	-0.0185595812	0.0
-0.0231994765	-0.0185595812	0.0
0.0	0.0	0.0379899862
-0.0115997383	0.0	0.0379899862
-0.0231994765	0.0	0.0379899862
0.0	-0.0092797906	0.0379899862
-0.0115997383	-0.0092797906	0.0379899862
-0.0231994765	-0.0092797906	0.0379899862
0.0	-0.0185595812	0.0379899862
-0.0115997383	-0.0185595812	0.0379899862
-0.0231994765	-0.0185595812	0.0379899862
0.0	0.0	0.0759799723
-0.0115997383	-0.0	0.0759799723
-0.0231994765	0.0	0.0759799723
0.0	-0.0092797906	0.0759799723
-0.0115997383	-0.0092797906	0.0759799723
-0.0231994765	-0.0092797906	0.0759799723
0.0	-0.0185595812	0.0759799723
-0.0115997383	-0.0185595812	0.0759799723
-0.0231994765	-0.0185595812	0.0759799723

VECTORS	v 	float 
0.0	0.0	0.0
0.0223373363	0.0	0.0
0.0446746727	0.0	0.0
0.0	0.0178698691	0.0
0.0223373363	0.0178698691	0.0
0.0446746727	0.0178698691	0.0
0.0	0.0357397382	0.0
0.0223373363	0.0357397382	0.0
0.0446746727	0.0357397382	0.0
0.0	-0.0	-0.0770191376
0.0223373363	0.0	-0.0770191376
0.0446746727	0.0	-0.0770191376
-0.0	0.0178698691	-0.0770191376
0.0223373363	0.0178698691	-0.0770191376
0.0446746727	0.0178698691	-0.0770191376
-0.0	0.0357397382	-0.0770191376
0.0223373363	0.0357397382	-0.0770191376
0.0446746727	0.0357397382	-0.0770191376
0.0	-0.0	-0.1540382752
0.0223373363	-0.0	-0.1540382752
0.0446746727	0.0	-0.1540382752
-0.0	0.0178698691	-0.1540382752
0.0223373363	0.0178698691	-0.1540382752
0.0446746727	0.0178698691	-0.1540382752
-0.0	0.0357397382	-0.1540382752
0.0223373363	0.0357397382	-0.1540382752
0.0446746727	0.0357397382	-0.1540382752

VECTORS	a 	float 
0.0	0.0	0.0
4.7819673617	0.0	0.0
9.5639347234	0.0	0.0
0.0	3.8255738894	0.0
4.7819673617	3.8255738894	0.0
9.5639347234	3.8255738894	0.0
0.0	7.6511477787	0.0
4.7819673617	7.6511477787	0.0
9.5639347234	7.6511477787	0.0
0.0	-0.0	-16.4799404158
4.7819673617	0.0	-16.4799404158
9.5639347234	-0.0	-16.4799404158
-0.0	3.8255738893	-16.4799404158
4.7819673617	3.8255738894	-16.4799404158
9.5639347234	3.8255738894	-16.4799404158
-0.0	7.6511477787	-16.4799404158
4.7819673617	7.6511477787	-16.4799404158
9.5639347234	7.6511477787	-16.4799404158
0.0	-0.0	-32.9598808315
4.7819673617	-0.0	-32.9598808315
9.5639347234	0.0	-32.9598808315
0.0	3.8255738893	-32.9598808315
4.7819673617	3.8255738894	-32.9598808315
9.5639347234	3.8255738894	-32.9598808315
0.0	7.6511477787	-32.9598808315
4.7819673617	7.6511477787	-32.9598808315
9.5639347234	7.6511477787	-32.9598808315

SCALARS	theta	float 1
LOOKUP_TABLE	default
299.4663678452
299.4663678452
299.4663678452
299.4663678452
299.4663678452
299.4663678452
299.4663678452
299.4663678452
299.4663678452
299.4663678452
299.4663678452
299.4663678452
299.4663678452
299.4663678452
299.4663678452
299.4663678452
299.4663678452
299.4663678452
299.4663678452
299.4663678452
299.4663678452
299.4663678452
299.4663678452
299.4663678452
299.4663678452
299.4663678452
299.4663678452

SCALARS	sig_11	float	1
LOOKUP_TABLE	default
-2.4e-09
-2.4e-09
-2.4e-09
-2.4e-09
-2.4e-09
-2.3e-09
-2.4e-09
-2.4e-09
-2.3e-09
-2.4e-09
-2.4e-09
-2.4e-09
-2.4e-09
-2.3e-09
-2.4e-09
-2.4e-09
-2.4e-09
-2.4e-09
-2.4e-09
-2.4e-09
-2.4e-09
-2.3e-09
-2.3e-09
-2.4e-09
-2.4e-09
-2.3e-09
-2.3e-09

SCALARS	sig_22	float	1
LOOKUP_TABLE	default
-2.4e-09
-2.4e-09
-2.4e-09
-2.4e-09
-2.4e-09
-2.3e-09
-2.4e-09
-2.4e-09
-2.3e-09
-2.4e-09
-2.4e-09
-2.4e-09
-2.4e-09
-2.3e-09
-2.4e-09
-2.4e-09
-2.4e-09
-2.4e-09
-2.4e-09
-2.4e-09
-2.4e-09
-2.3e-09
-2.3e-09
-2.4e-09
-2.4e-09
-2.3e-09
-2.3e-09

SCALARS	sig_33	float	1
LOOKUP_TABLE	default
124.9901646905
124.9901646905
124.9901646905
124.9901646905
124.9901646905
124.9901646906
124.9901646905
124.9901646905
124.9901646906
124.9901646905
124.9901646905
124.9901646906
124.9901646905
124.9901646906
124.9901646906
124.9901646905
124.9901646905
124.9901646906
124.9901646905
124.9901646906
124.9901646906
124.9901646906
124.9901646906
124.9901646905
124.9901646905
124.9901646905
124.9901646905

SCALARS vonMises	float	1
LOOKUP_TABLE	default
88.381393036
88.381393036
88.381393036
88.381393036
88.381393036
88.381393036
88.381393036
88.381393036
88.381393036
88.381393036
88.381393036
88.381393036
88.381393036
88.381393036
88.381393036
88.381393036
88.381393036
88.381393036
88.381393036
88.381393036
88.381393036
88.381393036
88.381393036
88.381393036
88.381393036
88.381393036
88.381393036
