# vtk DataFile Version 2.0
Results
ASCII
DATASET UNSTRUCTURED_GRID
POINTS         27           float
0.0	0.0	0.0	
50.0	0.0	0.0	
100.0	0.0	0.0	
0.0	40.0	0.0	
50.0	40.0	0.0	
100.0	40.0	0.0	
0.0	80.0	0.0	
50.0	80.0	0.0	
100.0	80.0	0.0	
0.0	0.0	70.0	
50.0	0.0	70.0	
100.0	0.0	70.0	
0.0	40.0	70.0	
50.0	40.0	70.0	
100.0	40.0	70.0	
0.0	80.0	70.0	
50.0	80.0	70.0	
100.0	80.0	70.0	
0.0	0.0	140.0	
50.0	0.0	140.0	
100.0	0.0	140.0	
0.0	40.0	140.0	
50.0	40.0	140.0	
100.0	40.0	140.0	
0.0	80.0	140.0	
50.0	80.0	140.0	
100.0	80.0	140.0	

CELLS	8	72
 8	0	1	4	3	9	10	13	12	
 8	1	2	5	4	10	11	14	13	
 8	4	5	8	7	13	14	17	16	
 8	3	4	7	6	12	13	16	15	
 8	9	10	13	12	18	19	22	21	
 8	10	11	14	13	19	20	23	22	
 8	13	14	17	16	22	23	26	25	
 8	12	13	16	15	21	22	25	24	

CELL_TYPES	8
 12
 12
 12
 12
 12
 12
 12
 12

POINT_DATA	27
SCALARS	u1	float 1
LOOKUP_TABLE	default
0.0
-0.011
-0.023
0.0
-0.011
-0.023
0.0
-0.011
-0.023
-0.0
-0.011
-0.023
0.0
-0.011
-0.023
0.0
-0.011
-0.023
0.0
-0.011
-0.023
0.0
-0.011
-0.023
0.0
-0.011
-0.023

SCALARS	u2	float 1
LOOKUP_TABLE	default
0.0
0.0
0.0
-0.009
-0.009
-0.009
-0.018
-0.018
-0.018
0.0
0.0
0.0
-0.009
-0.009
-0.009
-0.018
-0.018
-0.018
0.0
0.0
0.0
-0.009
-0.009
-0.009
-0.018
-0.018
-0.018

SCALARS	u3	float 1
LOOKUP_TABLE	default
0.0
0.0
0.0
0.0
0.0
0.0
0.0
0.0
0.0
0.038
0.038
0.038
0.038
0.038
0.038
0.038
0.038
0.038
0.077
0.077
0.077
0.077
0.077
0.077
0.077
0.077
0.077

SCALARS	u4	float 1
LOOKUP_TABLE	default
299.506
299.506
299.506
299.506
299.506
299.506
299.506
299.506
299.506
299.506
299.506
299.506
299.506
299.506
299.506
299.506
299.506
299.506
299.506
299.506
299.506
299.506
299.506
299.506
299.506
299.506
299.506

VECTORS	u 	float 
0.0	0.0	0.0
-0.0114020759	0.0	0.0
-0.0228041519	0.0	0.0
0.0	-0.0091216607	0.0
-0.0114020759	-0.0091216607	0.0
-0.0228041519	-0.0091216607	0.0
0.0	-0.0182433215	0.0
-0.0114020759	-0.0182433215	0.0
-0.0228041519	-0.0182433215	0.0
-0.0	0.0	0.038266713
-0.0114020759	0.0	0.038266713
-0.0228041519	0.0	0.038266713
0.0	-0.0091216607	0.038266713
-0.0114020759	-0.0091216607	0.038266713
-0.0228041519	-0.0091216607	0.038266713
0.0	-0.0182433215	0.038266713
-0.0114020759	-0.0182433215	0.038266713
-0.0228041519	-0.0182433215	0.038266713
0.0	0.0	0.076533426
-0.0114020759	0.0	0.076533426
-0.0228041519	0.0	0.076533426
0.0	-0.0091216607	0.076533426
-0.0114020759	-0.0091216607	0.076533426
-0.0228041519	-0.0091216607	0.076533426
0.0	-0.0182433215	0.076533426
-0.0114020759	-0.0182433215	0.076533426
-0.0228041519	-0.0182433215	0.076533426

VECTORS	v 	float 
0.0	0.0	0.0
0.0223375846	0.0	0.0
0.0446751692	0.0	0.0
0.0	0.0178700677	0.0
0.0223375846	0.0178700677	0.0
0.0446751692	0.0178700677	0.0
0.0	0.0357401353	0.0
0.0223375846	0.0357401353	0.0
0.0446751692	0.0357401353	0.0
0.0	-0.0	-0.0770187892
0.0223375846	-0.0	-0.0770187892
0.0446751692	0.0	-0.0770187892
-0.0	0.0178700677	-0.0770187892
0.0223375846	0.0178700677	-0.0770187892
0.0446751692	0.0178700677	-0.0770187892
-0.0	0.0357401353	-0.0770187892
0.0223375846	0.0357401353	-0.0770187892
0.0446751692	0.0357401353	-0.0770187892
0.0	-0.0	-0.1540375784
0.0223375846	-0.0	-0.1540375784
0.0446751692	0.0	-0.1540375784
0.0	0.0178700677	-0.1540375784
0.0223375846	0.0178700677	-0.1540375784
0.0446751692	0.0178700677	-0.1540375784
-0.0	0.0357401353	-0.1540375784
0.0223375846	0.0357401353	-0.1540375784
0.0446751692	0.0357401353	-0.1540375784

VECTORS	a 	float 
0.0	0.0	0.0
2.4580810157	0.0	0.0
4.9161620314	0.0	0.0
0.0	1.9664648125	0.0
2.4580810157	1.9664648125	0.0
4.9161620314	1.9664648125	0.0
0.0	3.9329296251	0.0
2.4580810157	3.9329296251	0.0
4.9161620314	3.9329296251	0.0
0.0	-0.0	-8.4710757203
2.4580810157	0.0	-8.4710757203
4.9161620314	-0.0	-8.4710757203
0.0	1.9664648125	-8.4710757203
2.4580810157	1.9664648125	-8.4710757203
4.9161620314	1.9664648125	-8.4710757203
-0.0	3.9329296251	-8.4710757203
2.4580810157	3.9329296251	-8.4710757203
4.9161620314	3.9329296251	-8.4710757203
0.0	-0.0	-16.9421514406
2.4580810157	-0.0	-16.9421514406
4.9161620314	0.0	-16.9421514406
0.0	1.9664648125	-16.9421514406
2.4580810157	1.9664648125	-16.9421514406
4.9161620314	1.9664648125	-16.9421514406
0.0	3.9329296251	-16.9421514406
2.4580810157	3.9329296251	-16.9421514406
4.9161620314	3.9329296251	-16.9421514406

SCALARS	theta	float 1
LOOKUP_TABLE	default
299.5059008001
299.5059008001
299.5059008001
299.5059008001
299.5059008001
299.5059008001
299.5059008001
299.5059008001
299.5059008001
299.5059008001
299.5059008001
299.5059008001
299.5059008001
299.5059008001
299.5059008001
299.5059008001
299.5059008001
299.5059008001
299.5059008001
299.5059008001
299.5059008001
299.5059008001
299.5059008001
299.5059008001
299.5059008001
299.5059008001
299.5059008001

SCALARS	sig_11	float	1
LOOKUP_TABLE	default
-2.4e-09
-2.4e-09
-2.4e-09
-2.4e-09
-2.4e-09
-2.4e-09
-2.4e-09
-2.4e-09
-2.4e-09
-2.4e-09
-2.4e-09
-2.4e-09
-2.3e-09
-2.4e-09
-2.4e-09
-2.3e-09
-2.4e-09
-2.4e-09
-2.3e-09
-2.3e-09
-2.4e-09
-2.3e-09
-2.3e-09
-2.4e-09
-2.4e-09
-2.4e-09
-2.4e-09

SCALARS	sig_22	float	1
LOOKUP_TABLE	default
-2.4e-09
-2.4e-09
-2.4e-09
-2.4e-09
-2.4e-09
-2.4e-09
-2.4e-09
-2.4e-09
-2.4e-09
-2.4e-09
-2.4e-09
-2.4e-09
-2.3e-09
-2.4e-09
-2.4e-09
-2.3e-09
-2.4e-09
-2.4e-09
-2.3e-09
-2.3e-09
-2.4e-09
-2.3e-09
-2.3e-09
-2.4e-09
-2.4e-09
-2.4e-09
-2.4e-09

SCALARS	sig_33	float	1
LOOKUP_TABLE	default
124.9886829256
124.9886829256
124.9886829256
124.9886829256
124.9886829256
124.9886829256
124.9886829256
124.9886829256
124.9886829256
124.9886829256
124.9886829256
124.9886829256
124.9886829256
124.9886829256
124.9886829256
124.9886829256
124.9886829256
124.9886829256
124.9886829257
124.9886829257
124.9886829256
124.9886829256
124.9886829256
124.9886829256
124.9886829256
124.9886829256
124.9886829256

SCALARS vonMises	float	1
LOOKUP_TABLE	default
88.3803452699
88.3803452699
88.3803452699
88.3803452699
88.3803452699
88.3803452699
88.3803452699
88.3803452699
88.3803452699
88.3803452699
88.3803452699
88.3803452699
88.3803452699
88.3803452699
88.3803452699
88.3803452699
88.3803452699
88.3803452699
88.3803452699
88.3803452699
88.3803452699
88.3803452699
88.3803452699
88.3803452699
88.3803452699
88.3803452699
88.3803452699
