# vtk DataFile Version 2.0
Results
ASCII
DATASET UNSTRUCTURED_GRID
POINTS         27           float
0.0	0.0	0.0	
50.0	0.0	0.0	
100.0	0.0	0.0	
0.0	40.0	0.0	
50.0	40.0	0.0	
100.0	40.0	0.0	
0.0	80.0	0.0	
50.0	80.0	0.0	
100.0	80.0	0.0	
0.0	0.0	70.0	
50.0	0.0	70.0	
100.0	0.0	70.0	
0.0	40.0	70.0	
50.0	40.0	70.0	
100.0	40.0	70.0	
0.0	80.0	70.0	
50.0	80.0	70.0	
100.0	80.0	70.0	
0.0	0.0	140.0	
50.0	0.0	140.0	
100.0	0.0	140.0	
0.0	40.0	140.0	
50.0	40.0	140.0	
100.0	40.0	140.0	
0.0	80.0	140.0	
50.0	80.0	140.0	
100.0	80.0	140.0	

CELLS	8	72
 8	0	1	4	3	9	10	13	12	
 8	1	2	5	4	10	11	14	13	
 8	4	5	8	7	13	14	17	16	
 8	3	4	7	6	12	13	16	15	
 8	9	10	13	12	18	19	22	21	
 8	10	11	14	13	19	20	23	22	
 8	13	14	17	16	22	23	26	25	
 8	12	13	16	15	21	22	25	24	

CELL_TYPES	8
 12
 12
 12
 12
 12
 12
 12
 12

POINT_DATA	27
SCALARS	u1	float 1
LOOKUP_TABLE	default
0.0
-0.012
-0.023
0.0
-0.012
-0.023
0.0
-0.012
-0.023
0.0
-0.012
-0.023
0.0
-0.012
-0.023
0.0
-0.012
-0.023
0.0
-0.012
-0.023
0.0
-0.012
-0.023
0.0
-0.012
-0.023

SCALARS	u2	float 1
LOOKUP_TABLE	default
0.0
0.0
0.0
-0.009
-0.009
-0.009
-0.019
-0.019
-0.019
0.0
0.0
0.0
-0.009
-0.009
-0.009
-0.019
-0.019
-0.019
0.0
0.0
0.0
-0.009
-0.009
-0.009
-0.019
-0.019
-0.019

SCALARS	u3	float 1
LOOKUP_TABLE	default
0.0
0.0
0.0
0.0
0.0
0.0
0.0
0.0
0.0
0.038
0.038
0.038
0.038
0.038
0.038
0.038
0.038
0.038
0.076
0.076
0.076
0.076
0.076
0.076
0.076
0.076
0.076

SCALARS	u4	float 1
LOOKUP_TABLE	default
299.463
299.463
299.463
299.463
299.463
299.463
299.463
299.463
299.463
299.463
299.463
299.463
299.463
299.463
299.463
299.463
299.463
299.463
299.463
299.463
299.463
299.463
299.463
299.463
299.463
299.463
299.463

VECTORS	u 	float 
0.0	0.0	0.0
-0.0116149426	0.0	0.0
-0.0232298853	0.0	0.0
0.0	-0.0092919541	0.0
-0.0116149426	-0.0092919541	0.0
-0.0232298853	-0.0092919541	0.0
0.0	-0.0185839082	0.0
-0.0116149426	-0.0185839082	0.0
-0.0232298853	-0.0185839082	0.0
0.0	0.0	0.0379687001
-0.0116149426	0.0	0.0379687001
-0.0232298853	0.0	0.0379687001
0.0	-0.0092919541	0.0379687001
-0.0116149426	-0.0092919541	0.0379687001
-0.0232298853	-0.0092919541	0.0379687001
0.0	-0.0185839082	0.0379687001
-0.0116149426	-0.0185839082	0.0379687001
-0.0232298853	-0.0185839082	0.0379687001
0.0	0.0	0.0759374001
-0.0116149426	0.0	0.0759374001
-0.0232298853	0.0	0.0759374001
0.0	-0.0092919541	0.0759374001
-0.0116149426	-0.0092919541	0.0759374001
-0.0232298853	-0.0092919541	0.0759374001
0.0	-0.0185839082	0.0759374001
-0.0116149426	-0.0185839082	0.0759374001
-0.0232298853	-0.0185839082	0.0759374001

VECTORS	v 	float 
0.0	0.0	0.0
0.0223373172	0.0	0.0
0.0446746345	0.0	0.0
0.0	0.0178698538	0.0
0.0223373172	0.0178698538	0.0
0.0446746345	0.0178698538	0.0
0.0	0.0357397076	0.0
0.0223373172	0.0357397076	0.0
0.0446746345	0.0357397076	0.0
0.0	-0.0	-0.0770191644
0.0223373172	0.0	-0.0770191644
0.0446746345	0.0	-0.0770191644
-0.0	0.0178698538	-0.0770191644
0.0223373172	0.0178698538	-0.0770191644
0.0446746345	0.0178698538	-0.0770191644
-0.0	0.0357397076	-0.0770191644
0.0223373172	0.0357397076	-0.0770191644
0.0446746345	0.0357397076	-0.0770191644
0.0	-0.0	-0.1540383288
0.0223373172	-0.0	-0.1540383288
0.0446746345	0.0	-0.1540383288
-0.0	0.0178698538	-0.1540383288
0.0223373172	0.0178698538	-0.1540383288
0.0446746345	0.0178698538	-0.1540383288
0.0	0.0357397076	-0.1540383288
0.0223373172	0.0357397076	-0.1540383288
0.0446746345	0.0357397076	-0.1540383288

VECTORS	a 	float 
0.0	0.0	0.0
4.9607267789	0.0	0.0
9.9214535577	0.0	0.0
0.0	3.9685814231	0.0
4.9607267789	3.9685814231	0.0
9.9214535577	3.9685814231	0.0
0.0	7.9371628462	0.0
4.9607267789	7.9371628462	0.0
9.9214535577	7.9371628462	0.0
0.0	-0.0	-17.0960084338
4.9607267789	0.0	-17.0960084338
9.9214535577	-0.0	-17.0960084338
-0.0	3.9685814231	-17.0960084338
4.9607267789	3.9685814231	-17.0960084338
9.9214535577	3.9685814231	-17.0960084338
-0.0	7.9371628462	-17.0960084338
4.9607267789	7.9371628462	-17.0960084338
9.9214535577	7.9371628462	-17.0960084338
0.0	-0.0	-34.1920168677
4.9607267789	-0.0	-34.1920168677
9.9214535577	0.0	-34.1920168677
0.0	3.9685814231	-34.1920168677
4.9607267789	3.9685814231	-34.1920168677
9.9214535577	3.9685814231	-34.1920168677
0.0	7.9371628462	-34.1920168677
4.9607267789	7.9371628462	-34.1920168677
9.9214535577	7.9371628462	-34.1920168677

SCALARS	theta	float 1
LOOKUP_TABLE	default
299.4633269184
299.4633269184
299.4633269184
299.4633269184
299.4633269184
299.4633269184
299.4633269184
299.4633269184
299.4633269184
299.4633269184
299.4633269184
299.4633269184
299.4633269184
299.4633269184
299.4633269184
299.4633269184
299.4633269184
299.4633269184
299.4633269184
299.4633269184
299.4633269184
299.4633269184
299.4633269184
299.4633269184
299.4633269184
299.4633269184
299.4633269184

SCALARS	sig_11	float	1
LOOKUP_TABLE	default
-2.3e-09
-2.3e-09
-2.3e-09
-2.3e-09
-2.3e-09
-2.3e-09
-2.3e-09
-2.3e-09
-2.3e-09
-2.3e-09
-2.3e-09
-2.3e-09
-2.3e-09
-2.3e-09
-2.3e-09
-2.3e-09
-2.3e-09
-2.3e-09
-2.3e-09
-2.3e-09
-2.3e-09
-2.3e-09
-2.3e-09
-2.3e-09
-2.3e-09
-2.3e-09
-2.3e-09

SCALARS	sig_22	float	1
LOOKUP_TABLE	default
-2.3e-09
-2.3e-09
-2.3e-09
-2.3e-09
-2.3e-09
-2.3e-09
-2.3e-09
-2.3e-09
-2.3e-09
-2.3e-09
-2.3e-09
-2.3e-09
-2.3e-09
-2.3e-09
-2.3e-09
-2.3e-09
-2.3e-09
-2.3e-09
-2.3e-09
-2.3e-09
-2.3e-09
-2.3e-09
-2.3e-09
-2.3e-09
-2.3e-09
-2.3e-09
-2.3e-09

SCALARS	sig_33	float	1
LOOKUP_TABLE	default
124.9902786704
124.9902786704
124.9902786704
124.9902786704
124.9902786705
124.9902786705
124.9902786705
124.9902786705
124.9902786705
124.9902786705
124.9902786704
124.9902786705
124.9902786705
124.9902786705
124.9902786705
124.9902786705
124.9902786705
124.9902786705
124.9902786705
124.9902786705
124.9902786705
124.9902786705
124.9902786705
124.9902786705
124.9902786705
124.9902786705
124.9902786705

SCALARS vonMises	float	1
LOOKUP_TABLE	default
88.3814736319
88.3814736319
88.3814736319
88.3814736319
88.3814736319
88.3814736319
88.3814736319
88.3814736319
88.3814736319
88.3814736319
88.3814736319
88.3814736319
88.3814736319
88.3814736319
88.3814736319
88.3814736319
88.3814736319
88.3814736319
88.3814736319
88.3814736319
88.3814736319
88.3814736319
88.3814736319
88.3814736319
88.3814736319
88.3814736319
88.3814736319
