# vtk DataFile Version 2.0
Results
ASCII
DATASET UNSTRUCTURED_GRID
POINTS         27           float
0.0	0.0	0.0	
50.0	0.0	0.0	
100.0	0.0	0.0	
0.0	40.0	0.0	
50.0	40.0	0.0	
100.0	40.0	0.0	
0.0	80.0	0.0	
50.0	80.0	0.0	
100.0	80.0	0.0	
0.0	0.0	70.0	
50.0	0.0	70.0	
100.0	0.0	70.0	
0.0	40.0	70.0	
50.0	40.0	70.0	
100.0	40.0	70.0	
0.0	80.0	70.0	
50.0	80.0	70.0	
100.0	80.0	70.0	
0.0	0.0	140.0	
50.0	0.0	140.0	
100.0	0.0	140.0	
0.0	40.0	140.0	
50.0	40.0	140.0	
100.0	40.0	140.0	
0.0	80.0	140.0	
50.0	80.0	140.0	
100.0	80.0	140.0	

CELLS	8	72
 8	0	1	4	3	9	10	13	12	
 8	1	2	5	4	10	11	14	13	
 8	4	5	8	7	13	14	17	16	
 8	3	4	7	6	12	13	16	15	
 8	9	10	13	12	18	19	22	21	
 8	10	11	14	13	19	20	23	22	
 8	13	14	17	16	22	23	26	25	
 8	12	13	16	15	21	22	25	24	

CELL_TYPES	8
 12
 12
 12
 12
 12
 12
 12
 12

POINT_DATA	27
SCALARS	u1	float 1
LOOKUP_TABLE	default
0.0
-0.011
-0.023
0.0
-0.011
-0.023
0.0
-0.011
-0.023
0.0
-0.011
-0.023
0.0
-0.011
-0.023
0.0
-0.011
-0.023
0.0
-0.011
-0.023
-0.0
-0.011
-0.023
-0.0
-0.011
-0.023

SCALARS	u2	float 1
LOOKUP_TABLE	default
0.0
0.0
0.0
-0.009
-0.009
-0.009
-0.018
-0.018
-0.018
-0.0
0.0
-0.0
-0.009
-0.009
-0.009
-0.018
-0.018
-0.018
-0.0
-0.0
-0.0
-0.009
-0.009
-0.009
-0.018
-0.018
-0.018

SCALARS	u3	float 1
LOOKUP_TABLE	default
0.0
0.0
0.0
0.0
0.0
0.0
0.0
0.0
0.0
0.038
0.038
0.038
0.038
0.038
0.038
0.038
0.038
0.038
0.076
0.076
0.076
0.076
0.076
0.076
0.076
0.076
0.076

SCALARS	u4	float 1
LOOKUP_TABLE	default
299.503
299.503
299.503
299.503
299.503
299.503
299.503
299.503
299.503
299.503
299.503
299.503
299.503
299.503
299.503
299.503
299.503
299.503
299.503
299.503
299.503
299.503
299.503
299.503
299.503
299.503
299.503

VECTORS	u 	float 
0.0	0.0	0.0
-0.0114172811	0.0	0.0
-0.0228345622	0.0	0.0
0.0	-0.0091338249	0.0
-0.0114172811	-0.0091338249	0.0
-0.0228345622	-0.0091338249	0.0
0.0	-0.0182676497	0.0
-0.0114172811	-0.0182676497	0.0
-0.0228345622	-0.0182676497	0.0
0.0	-0.0	0.0382454258
-0.0114172811	0.0	0.0382454258
-0.0228345622	-0.0	0.0382454258
0.0	-0.0091338249	0.0382454258
-0.0114172811	-0.0091338249	0.0382454258
-0.0228345622	-0.0091338249	0.0382454258
0.0	-0.0182676497	0.0382454258
-0.0114172811	-0.0182676497	0.0382454258
-0.0228345622	-0.0182676497	0.0382454258
0.0	-0.0	0.0764908516
-0.0114172811	-0.0	0.0764908516
-0.0228345622	-0.0	0.0764908516
-0.0	-0.0091338249	0.0764908516
-0.0114172811	-0.0091338249	0.0764908516
-0.0228345622	-0.0091338249	0.0764908516
-0.0	-0.0182676497	0.0764908516
-0.0114172811	-0.0182676497	0.0764908516
-0.0228345622	-0.0182676497	0.0764908516

VECTORS	v 	float 
0.0	0.0	0.0
0.0223375655	0.0	0.0
0.044675131	0.0	0.0
0.0	0.0178700524	0.0
0.0223375655	0.0178700524	0.0
0.044675131	0.0178700524	0.0
0.0	0.0357401048	0.0
0.0223375655	0.0357401048	0.0
0.044675131	0.0357401048	0.0
0.0	-0.0	-0.077018816
0.0223375655	0.0	-0.077018816
0.044675131	0.0	-0.077018816
0.0	0.0178700524	-0.077018816
0.0223375655	0.0178700524	-0.077018816
0.044675131	0.0178700524	-0.077018816
-0.0	0.0357401048	-0.077018816
0.0223375655	0.0357401048	-0.077018816
0.044675131	0.0357401048	-0.077018816
0.0	-0.0	-0.154037632
0.0223375655	-0.0	-0.154037632
0.044675131	0.0	-0.154037632
0.0	0.0178700524	-0.154037632
0.0223375655	0.0178700524	-0.154037632
0.044675131	0.0178700524	-0.154037632
-0.0	0.0357401048	-0.154037632
0.0223375655	0.0357401048	-0.154037632
0.044675131	0.0357401048	-0.154037632

VECTORS	a 	float 
0.0	0.0	0.0
2.6368424218	0.0	0.0
5.2736848436	0.0	0.0
0.0	2.1094739374	0.0
2.6368424218	2.1094739374	0.0
5.2736848436	2.1094739374	0.0
0.0	4.2189478749	0.0
2.6368424218	4.2189478749	0.0
5.2736848436	4.2189478749	0.0
0.0	-0.0	-9.0871409471
2.6368424218	0.0	-9.0871409471
5.2736848436	-0.0	-9.0871409471
0.0	2.1094739374	-9.0871409471
2.6368424218	2.1094739374	-9.0871409471
5.2736848436	2.1094739374	-9.0871409471
-0.0	4.2189478749	-9.0871409471
2.6368424218	4.2189478749	-9.0871409471
5.2736848436	4.2189478749	-9.0871409471
0.0	-0.0	-18.1742818942
2.6368424218	-0.0	-18.1742818942
5.2736848436	0.0	-18.1742818942
0.0	2.1094739374	-18.1742818942
2.6368424218	2.1094739374	-18.1742818942
5.2736848436	2.1094739374	-18.1742818942
-0.0	4.2189478749	-18.1742818942
2.6368424218	4.2189478749	-18.1742818942
5.2736848436	4.2189478749	-18.1742818942

SCALARS	theta	float 1
LOOKUP_TABLE	default
299.5028597437
299.5028597437
299.5028597437
299.5028597437
299.5028597437
299.5028597437
299.5028597437
299.5028597437
299.5028597437
299.5028597437
299.5028597437
299.5028597437
299.5028597437
299.5028597437
299.5028597437
299.5028597437
299.5028597437
299.5028597437
299.5028597437
299.5028597437
299.5028597437
299.5028597437
299.5028597437
299.5028597437
299.5028597437
299.5028597437
299.5028597437

SCALARS	sig_11	float	1
LOOKUP_TABLE	default
-2.3e-09
-2.3e-09
-2.3e-09
-2.3e-09
-2.3e-09
-2.3e-09
-2.3e-09
-2.3e-09
-2.3e-09
-2.3e-09
-2.3e-09
-2.3e-09
-2.3e-09
-2.3e-09
-2.3e-09
-2.3e-09
-2.3e-09
-2.3e-09
-2.4e-09
-2.4e-09
-2.3e-09
-2.4e-09
-2.4e-09
-2.3e-09
-2.4e-09
-2.4e-09
-2.4e-09

SCALARS	sig_22	float	1
LOOKUP_TABLE	default
-2.3e-09
-2.3e-09
-2.3e-09
-2.3e-09
-2.3e-09
-2.3e-09
-2.4e-09
-2.3e-09
-2.3e-09
-2.3e-09
-2.3e-09
-2.3e-09
-2.3e-09
-2.3e-09
-2.3e-09
-2.3e-09
-2.3e-09
-2.3e-09
-2.4e-09
-2.4e-09
-2.3e-09
-2.4e-09
-2.4e-09
-2.3e-09
-2.4e-09
-2.4e-09
-2.4e-09

SCALARS	sig_33	float	1
LOOKUP_TABLE	default
124.9887969093
124.9887969093
124.9887969093
124.9887969093
124.9887969093
124.9887969093
124.9887969093
124.9887969093
124.9887969093
124.9887969093
124.9887969093
124.9887969093
124.9887969093
124.9887969093
124.9887969093
124.9887969093
124.9887969093
124.9887969093
124.9887969093
124.9887969093
124.9887969093
124.9887969093
124.9887969093
124.9887969093
124.9887969093
124.9887969093
124.9887969093

SCALARS vonMises	float	1
LOOKUP_TABLE	default
88.3804258686
88.3804258686
88.3804258686
88.3804258686
88.3804258686
88.3804258686
88.3804258686
88.3804258686
88.3804258686
88.3804258686
88.3804258686
88.3804258686
88.3804258686
88.3804258686
88.3804258686
88.3804258686
88.3804258686
88.3804258686
88.3804258686
88.3804258686
88.3804258686
88.3804258686
88.3804258686
88.3804258686
88.3804258686
88.3804258686
88.3804258686
