# vtk DataFile Version 2.0
Results
ASCII
DATASET UNSTRUCTURED_GRID
POINTS         27           float
0.0	0.0	0.0	
50.0	0.0	0.0	
100.0	0.0	0.0	
0.0	40.0	0.0	
50.0	40.0	0.0	
100.0	40.0	0.0	
0.0	80.0	0.0	
50.0	80.0	0.0	
100.0	80.0	0.0	
0.0	0.0	70.0	
50.0	0.0	70.0	
100.0	0.0	70.0	
0.0	40.0	70.0	
50.0	40.0	70.0	
100.0	40.0	70.0	
0.0	80.0	70.0	
50.0	80.0	70.0	
100.0	80.0	70.0	
0.0	0.0	140.0	
50.0	0.0	140.0	
100.0	0.0	140.0	
0.0	40.0	140.0	
50.0	40.0	140.0	
100.0	40.0	140.0	
0.0	80.0	140.0	
50.0	80.0	140.0	
100.0	80.0	140.0	

CELLS	8	72
 8	0	1	4	3	9	10	13	12	
 8	1	2	5	4	10	11	14	13	
 8	4	5	8	7	13	14	17	16	
 8	3	4	7	6	12	13	16	15	
 8	9	10	13	12	18	19	22	21	
 8	10	11	14	13	19	20	23	22	
 8	13	14	17	16	22	23	26	25	
 8	12	13	16	15	21	22	25	24	

CELL_TYPES	8
 12
 12
 12
 12
 12
 12
 12
 12

POINT_DATA	27
SCALARS	u1	float 1
LOOKUP_TABLE	default
0.0
-0.001
-0.002
0.0
-0.001
-0.002
0.0
-0.001
-0.002
0.0
-0.001
-0.002
0.0
-0.001
-0.002
0.0
-0.001
-0.002
0.0
-0.001
-0.002
0.0
-0.001
-0.002
0.0
-0.001
-0.002

SCALARS	u2	float 1
LOOKUP_TABLE	default
0.0
0.0
0.0
-0.001
-0.001
-0.001
-0.001
-0.001
-0.001
-0.0
-0.0
-0.0
-0.001
-0.001
-0.001
-0.001
-0.001
-0.001
-0.0
-0.0
-0.0
-0.001
-0.001
-0.001
-0.001
-0.001
-0.001

SCALARS	u3	float 1
LOOKUP_TABLE	default
0.0
0.0
0.0
0.0
0.0
0.0
0.0
0.0
0.0
-0.001
-0.001
-0.001
-0.001
-0.001
-0.001
-0.001
-0.001
-0.001
-0.002
-0.002
-0.002
-0.002
-0.002
-0.002
-0.002
-0.002
-0.002

SCALARS	u4	float 1
LOOKUP_TABLE	default
299.846
299.846
299.846
299.846
299.846
299.846
299.846
299.846
299.846
299.846
299.846
299.846
299.846
299.846
299.846
299.846
299.846
299.846
299.846
299.846
299.846
299.846
299.846
299.846
299.846
299.846
299.846

VECTORS	u 	float 
0.0	0.0	0.0
-0.0007683534	0.0	0.0
-0.0015367068	0.0	0.0
0.0	-0.0006146827	0.0
-0.0007683534	-0.0006146827	0.0
-0.0015367068	-0.0006146827	0.0
0.0	-0.0012293655	0.0
-0.0007683534	-0.0012293655	0.0
-0.0015367068	-0.0012293655	0.0
0.0	-0.0	-0.0010756948
-0.0007683534	-0.0	-0.0010756948
-0.0015367068	-0.0	-0.0010756948
0.0	-0.0006146827	-0.0010756948
-0.0007683534	-0.0006146827	-0.0010756948
-0.0015367068	-0.0006146827	-0.0010756948
0.0	-0.0012293655	-0.0010756948
-0.0007683534	-0.0012293655	-0.0010756948
-0.0015367068	-0.0012293655	-0.0010756948
0.0	-0.0	-0.0021513896
-0.0007683534	-0.0	-0.0021513896
-0.0015367068	-0.0	-0.0021513896
0.0	-0.0006146827	-0.0021513896
-0.0007683534	-0.0006146827	-0.0021513896
-0.0015367068	-0.0006146827	-0.0021513896
0.0	-0.0012293655	-0.0021513896
-0.0007683534	-0.0012293655	-0.0021513896
-0.0015367068	-0.0012293655	-0.0021513896

VECTORS	v 	float 
0.0	0.0	0.0
2.56203e-05	0.0	0.0
5.12405e-05	0.0	0.0
0.0	2.04962e-05	0.0
2.56203e-05	2.04962e-05	0.0
5.12405e-05	2.04962e-05	0.0
0.0	4.09924e-05	0.0
2.56203e-05	4.09924e-05	0.0
5.12405e-05	4.09924e-05	0.0
-0.0	0.0	-0.0001336294
2.56203e-05	-0.0	-0.0001336294
5.12405e-05	0.0	-0.0001336294
0.0	2.04962e-05	-0.0001336294
2.56203e-05	2.04962e-05	-0.0001336294
5.12405e-05	2.04962e-05	-0.0001336294
0.0	4.09924e-05	-0.0001336294
2.56203e-05	4.09924e-05	-0.0001336294
5.12405e-05	4.09924e-05	-0.0001336294
-0.0	0.0	-0.0002672588
2.56203e-05	0.0	-0.0002672588
5.12405e-05	-0.0	-0.0002672588
-0.0	2.04962e-05	-0.0002672588
2.56203e-05	2.04962e-05	-0.0002672588
5.12405e-05	2.04962e-05	-0.0002672588
-0.0	4.09924e-05	-0.0002672588
2.56203e-05	4.09924e-05	-0.0002672588
5.12405e-05	4.09924e-05	-0.0002672588

VECTORS	a 	float 
0.0	0.0	0.0
-8.9193662418	0.0	0.0
-17.8387324836	0.0	0.0
0.0	-7.1354929934	0.0
-8.9193662417	-7.1354929934	0.0
-17.8387324836	-7.1354929934	0.0
0.0	-14.2709859868	0.0
-8.9193662418	-14.2709859868	0.0
-17.8387324835	-14.2709859868	0.0
-0.0	0.0	30.7060492054
-8.9193662418	-0.0	30.7060492054
-17.8387324836	0.0	30.7060492055
0.0	-7.1354929934	30.7060492054
-8.9193662418	-7.1354929934	30.7060492054
-17.8387324836	-7.1354929934	30.7060492055
0.0	-14.2709859868	30.7060492054
-8.9193662418	-14.2709859868	30.7060492054
-17.8387324836	-14.2709859868	30.7060492055
-1e-10	1e-10	61.4120984109
-8.9193662418	0.0	61.4120984109
-17.8387324837	-0.0	61.412098411
-0.0	-7.1354929934	61.4120984108
-8.9193662418	-7.1354929934	61.4120984109
-17.8387324836	-7.1354929934	61.412098411
-0.0	-14.2709859868	61.4120984109
-8.9193662418	-14.2709859868	61.4120984109
-17.8387324837	-14.2709859868	61.4120984109

SCALARS	theta	float 1
LOOKUP_TABLE	default
299.8463265007
299.8463265007
299.8463265007
299.8463265007
299.8463265007
299.8463265007
299.8463265007
299.8463265007
299.8463265007
299.8463265007
299.8463265007
299.8463265007
299.8463265007
299.8463265007
299.8463265007
299.8463265007
299.8463265007
299.8463265007
299.8463265007
299.8463265007
299.8463265007
299.8463265007
299.8463265007
299.8463265007
299.8463265007
299.8463265007
299.8463265007

SCALARS	sig_11	float	1
LOOKUP_TABLE	default
-1e-09
-1e-09
-1e-09
-1e-09
-1e-09
-1e-09
-1e-09
-1e-09
-1e-09
-1e-09
-1e-09
-1e-09
-1e-09
-1e-09
-1e-09
-1e-09
-1e-09
-1e-09
-1e-09
-1e-09
-1e-09
-1e-09
-1e-09
-1e-09
-1e-09
-1e-09
-1e-09

SCALARS	sig_22	float	1
LOOKUP_TABLE	default
-1e-09
-1e-09
-1e-09
-1e-09
-1e-09
-1e-09
-1e-09
-1e-09
-1e-09
-1e-09
-1e-09
-1e-09
-1e-09
-1e-09
-1e-09
-1e-09
-1e-09
-1e-09
-1e-09
-1e-09
-1e-09
-1e-09
-1e-09
-1e-09
-1e-09
-1e-09
-1e-09

SCALARS	sig_33	float	1
LOOKUP_TABLE	default
-1e-09
-1e-09
-1e-09
-1e-09
-1e-09
-1e-09
-1e-09
-1e-09
-1e-09
-1e-09
-1e-09
-1e-09
-1e-09
-1e-09
-1e-09
-1e-09
-1e-09
-1e-09
-1e-09
-1e-09
-1e-09
-1e-09
-1e-09
-1e-09
-1e-09
-1e-09
-1e-09

SCALARS vonMises	float	1
LOOKUP_TABLE	default
0.0
0.0
0.0
0.0
0.0
0.0
0.0
0.0
0.0
0.0
0.0
0.0
0.0
0.0
0.0
0.0
0.0
0.0
0.0
0.0
0.0
0.0
0.0
0.0
0.0
0.0
0.0
