# vtk DataFile Version 2.0
Results
ASCII
DATASET UNSTRUCTURED_GRID
POINTS         27           float
0.0	0.0	0.0	
50.0	0.0	0.0	
100.0	0.0	0.0	
0.0	40.0	0.0	
50.0	40.0	0.0	
100.0	40.0	0.0	
0.0	80.0	0.0	
50.0	80.0	0.0	
100.0	80.0	0.0	
0.0	0.0	70.0	
50.0	0.0	70.0	
100.0	0.0	70.0	
0.0	40.0	70.0	
50.0	40.0	70.0	
100.0	40.0	70.0	
0.0	80.0	70.0	
50.0	80.0	70.0	
100.0	80.0	70.0	
0.0	0.0	140.0	
50.0	0.0	140.0	
100.0	0.0	140.0	
0.0	40.0	140.0	
50.0	40.0	140.0	
100.0	40.0	140.0	
0.0	80.0	140.0	
50.0	80.0	140.0	
100.0	80.0	140.0	

CELLS	8	72
 8	0	1	4	3	9	10	13	12	
 8	1	2	5	4	10	11	14	13	
 8	4	5	8	7	13	14	17	16	
 8	3	4	7	6	12	13	16	15	
 8	9	10	13	12	18	19	22	21	
 8	10	11	14	13	19	20	23	22	
 8	13	14	17	16	22	23	26	25	
 8	12	13	16	15	21	22	25	24	

CELL_TYPES	8
 12
 12
 12
 12
 12
 12
 12
 12

POINT_DATA	27
SCALARS	u1	float 1
LOOKUP_TABLE	default
0.0
-0.012
-0.024
0.0
-0.012
-0.024
0.0
-0.012
-0.024
0.0
-0.012
-0.024
0.0
-0.012
-0.024
0.0
-0.012
-0.024
0.0
-0.012
-0.024
0.0
-0.012
-0.024
0.0
-0.012
-0.024

SCALARS	u2	float 1
LOOKUP_TABLE	default
0.0
0.0
0.0
-0.009
-0.009
-0.009
-0.019
-0.019
-0.019
0.0
0.0
0.0
-0.009
-0.009
-0.009
-0.019
-0.019
-0.019
0.0
0.0
0.0
-0.009
-0.009
-0.009
-0.019
-0.019
-0.019

SCALARS	u3	float 1
LOOKUP_TABLE	default
0.0
0.0
0.0
0.0
0.0
0.0
0.0
0.0
0.0
0.038
0.038
0.038
0.038
0.038
0.038
0.038
0.038
0.038
0.075
0.075
0.075
0.075
0.075
0.075
0.075
0.075
0.075

SCALARS	u4	float 1
LOOKUP_TABLE	default
299.416
299.416
299.416
299.416
299.416
299.416
299.416
299.416
299.416
299.416
299.416
299.416
299.416
299.416
299.416
299.416
299.416
299.416
299.416
299.416
299.416
299.416
299.416
299.416
299.416
299.416
299.416

VECTORS	u 	float 
0.0	0.0	0.0
-0.0118505975	0.0	0.0
-0.023701195	0.0	0.0
0.0	-0.009480478	0.0
-0.0118505975	-0.009480478	0.0
-0.023701195	-0.009480478	0.0
0.0	-0.018960956	0.0
-0.0118505975	-0.018960956	0.0
-0.023701195	-0.018960956	0.0
0.0	0.0	0.0376387838
-0.0118505975	0.0	0.0376387838
-0.023701195	0.0	0.0376387838
0.0	-0.009480478	0.0376387838
-0.0118505975	-0.009480478	0.0376387838
-0.023701195	-0.009480478	0.0376387838
0.0	-0.018960956	0.0376387838
-0.0118505975	-0.018960956	0.0376387838
-0.023701195	-0.018960956	0.0376387838
0.0	0.0	0.0752775675
-0.0118505975	0.0	0.0752775675
-0.023701195	0.0	0.0752775675
0.0	-0.009480478	0.0752775675
-0.0118505975	-0.009480478	0.0752775675
-0.023701195	-0.009480478	0.0752775675
0.0	-0.018960956	0.0752775675
-0.0118505975	-0.018960956	0.0752775675
-0.023701195	-0.018960956	0.0752775675

VECTORS	v 	float 
0.0	0.0	0.0
-0.022352221	0.0	0.0
-0.044704442	0.0	0.0
0.0	-0.0178817768	0.0
-0.022352221	-0.0178817768	0.0
-0.044704442	-0.0178817768	0.0
0.0	-0.0357635536	0.0
-0.022352221	-0.0357635536	0.0
-0.044704442	-0.0357635536	0.0
-0.0	-0.0	0.0769982837
-0.022352221	-0.0	0.0769982837
-0.044704442	-0.0	0.0769982837
0.0	-0.0178817768	0.0769982837
-0.022352221	-0.0178817768	0.0769982837
-0.044704442	-0.0178817768	0.0769982837
0.0	-0.0357635536	0.0769982837
-0.022352221	-0.0357635536	0.0769982837
-0.044704442	-0.0357635536	0.0769982837
-0.0	0.0	0.1539965673
-0.022352221	-0.0	0.1539965673
-0.044704442	-0.0	0.1539965673
-0.0	-0.0178817768	0.1539965673
-0.022352221	-0.0178817768	0.1539965673
-0.044704442	-0.0178817768	0.1539965673
-0.0	-0.0357635536	0.1539965673
-0.022352221	-0.0357635536	0.1539965673
-0.044704442	-0.0357635536	0.1539965673

VECTORS	a 	float 
0.0	0.0	0.0
-7.7314781785	0.0	0.0
-15.462956357	0.0	0.0
0.0	-6.1851825428	0.0
-7.7314781785	-6.1851825428	0.0
-15.462956357	-6.1851825428	0.0
0.0	-12.3703650856	0.0
-7.7314781785	-12.3703650856	0.0
-15.462956357	-12.3703650856	0.0
-0.0	0.0	26.6450901729
-7.7314781785	-0.0	26.6450901729
-15.462956357	-0.0	26.6450901729
0.0	-6.1851825428	26.6450901729
-7.7314781785	-6.1851825428	26.6450901729
-15.462956357	-6.1851825428	26.6450901729
0.0	-12.3703650856	26.6450901729
-7.7314781785	-12.3703650856	26.6450901729
-15.462956357	-12.3703650856	26.645090173
-0.0	0.0	53.2901803459
-7.7314781785	-0.0	53.2901803459
-15.4629563571	-0.0	53.2901803459
-0.0	-6.1851825428	53.2901803459
-7.7314781785	-6.1851825428	53.2901803459
-15.4629563571	-6.1851825428	53.2901803459
-0.0	-12.3703650856	53.2901803459
-7.7314781785	-12.3703650856	53.2901803459
-15.4629563571	-12.3703650856	53.2901803459

SCALARS	theta	float 1
LOOKUP_TABLE	default
299.4161948444
299.4161948444
299.4161948444
299.4161948444
299.4161948444
299.4161948444
299.4161948444
299.4161948444
299.4161948444
299.4161948444
299.4161948444
299.4161948444
299.4161948444
299.4161948444
299.4161948444
299.4161948444
299.4161948444
299.4161948444
299.4161948444
299.4161948444
299.4161948444
299.4161948444
299.4161948444
299.4161948444
299.4161948444
299.4161948444
299.4161948444

SCALARS	sig_11	float	1
LOOKUP_TABLE	default
-2.4e-09
-2.4e-09
-2.4e-09
-2.4e-09
-2.4e-09
-2.4e-09
-2.4e-09
-2.4e-09
-2.4e-09
-2.4e-09
-2.4e-09
-2.4e-09
-2.4e-09
-2.4e-09
-2.4e-09
-2.4e-09
-2.4e-09
-2.4e-09
-2.4e-09
-2.4e-09
-2.4e-09
-2.4e-09
-2.4e-09
-2.4e-09
-2.4e-09
-2.4e-09
-2.4e-09

SCALARS	sig_22	float	1
LOOKUP_TABLE	default
-2.4e-09
-2.4e-09
-2.4e-09
-2.4e-09
-2.4e-09
-2.4e-09
-2.4e-09
-2.4e-09
-2.4e-09
-2.4e-09
-2.4e-09
-2.4e-09
-2.4e-09
-2.4e-09
-2.4e-09
-2.4e-09
-2.4e-09
-2.4e-09
-2.4e-09
-2.4e-09
-2.4e-09
-2.4e-09
-2.4e-09
-2.4e-09
-2.4e-09
-2.4e-09
-2.4e-09

SCALARS	sig_33	float	1
LOOKUP_TABLE	default
124.9920453586
124.9920453586
124.9920453586
124.9920453586
124.9920453586
124.9920453586
124.9920453586
124.9920453586
124.9920453586
124.9920453586
124.9920453586
124.9920453586
124.9920453586
124.9920453586
124.9920453586
124.9920453586
124.9920453586
124.9920453586
124.9920453586
124.9920453586
124.9920453586
124.9920453586
124.9920453586
124.9920453586
124.9920453586
124.9920453586
124.9920453586

SCALARS vonMises	float	1
LOOKUP_TABLE	default
88.3827228691
88.3827228691
88.3827228691
88.3827228691
88.3827228691
88.3827228691
88.3827228691
88.3827228691
88.3827228691
88.3827228691
88.3827228691
88.3827228691
88.3827228691
88.3827228691
88.3827228691
88.3827228691
88.3827228691
88.3827228691
88.3827228691
88.3827228691
88.3827228691
88.3827228691
88.3827228691
88.3827228691
88.3827228691
88.3827228691
88.3827228691
