# vtk DataFile Version 2.0
Results
ASCII
DATASET UNSTRUCTURED_GRID
POINTS         27           float
0.0	0.0	0.0	
50.0	0.0	0.0	
100.0	0.0	0.0	
0.0	40.0	0.0	
50.0	40.0	0.0	
100.0	40.0	0.0	
0.0	80.0	0.0	
50.0	80.0	0.0	
100.0	80.0	0.0	
0.0	0.0	70.0	
50.0	0.0	70.0	
100.0	0.0	70.0	
0.0	40.0	70.0	
50.0	40.0	70.0	
100.0	40.0	70.0	
0.0	80.0	70.0	
50.0	80.0	70.0	
100.0	80.0	70.0	
0.0	0.0	140.0	
50.0	0.0	140.0	
100.0	0.0	140.0	
0.0	40.0	140.0	
50.0	40.0	140.0	
100.0	40.0	140.0	
0.0	80.0	140.0	
50.0	80.0	140.0	
100.0	80.0	140.0	

CELLS	8	72
 8	0	1	4	3	9	10	13	12	
 8	1	2	5	4	10	11	14	13	
 8	4	5	8	7	13	14	17	16	
 8	3	4	7	6	12	13	16	15	
 8	9	10	13	12	18	19	22	21	
 8	10	11	14	13	19	20	23	22	
 8	13	14	17	16	22	23	26	25	
 8	12	13	16	15	21	22	25	24	

CELL_TYPES	8
 12
 12
 12
 12
 12
 12
 12
 12

POINT_DATA	27
SCALARS	u1	float 1
LOOKUP_TABLE	default
0.0
-0.012
-0.023
0.0
-0.012
-0.023
0.0
-0.012
-0.023
0.0
-0.012
-0.023
0.0
-0.012
-0.023
0.0
-0.012
-0.023
0.0
-0.012
-0.023
0.0
-0.012
-0.023
0.0
-0.012
-0.023

SCALARS	u2	float 1
LOOKUP_TABLE	default
0.0
0.0
0.0
-0.009
-0.009
-0.009
-0.019
-0.019
-0.019
0.0
-0.0
-0.0
-0.009
-0.009
-0.009
-0.019
-0.019
-0.019
0.0
-0.0
0.0
-0.009
-0.009
-0.009
-0.019
-0.019
-0.019

SCALARS	u3	float 1
LOOKUP_TABLE	default
0.0
0.0
0.0
0.0
0.0
0.0
0.0
0.0
0.0
0.038
0.038
0.038
0.038
0.038
0.038
0.038
0.038
0.038
0.076
0.076
0.076
0.076
0.076
0.076
0.076
0.076
0.076

SCALARS	u4	float 1
LOOKUP_TABLE	default
299.457
299.457
299.457
299.457
299.457
299.457
299.457
299.457
299.457
299.457
299.457
299.457
299.457
299.457
299.457
299.457
299.457
299.457
299.457
299.457
299.457
299.457
299.457
299.457
299.457
299.457
299.457

VECTORS	u 	float 
0.0	0.0	0.0
-0.0116453512	0.0	0.0
-0.0232907024	0.0	0.0
0.0	-0.009316281	0.0
-0.0116453512	-0.009316281	0.0
-0.0232907024	-0.009316281	0.0
0.0	-0.0186325619	0.0
-0.0116453512	-0.0186325619	0.0
-0.0232907024	-0.0186325619	0.0
0.0	0.0	0.0379261282
-0.0116453512	-0.0	0.0379261282
-0.0232907024	-0.0	0.0379261282
0.0	-0.009316281	0.0379261282
-0.0116453512	-0.009316281	0.0379261282
-0.0232907024	-0.009316281	0.0379261282
0.0	-0.0186325619	0.0379261282
-0.0116453512	-0.0186325619	0.0379261282
-0.0232907024	-0.0186325619	0.0379261282
0.0	0.0	0.0758522563
-0.0116453512	-0.0	0.0758522563
-0.0232907024	0.0	0.0758522563
0.0	-0.009316281	0.0758522563
-0.0116453512	-0.009316281	0.0758522563
-0.0232907024	-0.009316281	0.0758522563
0.0	-0.0186325619	0.0758522563
-0.0116453512	-0.0186325619	0.0758522563
-0.0232907024	-0.0186325619	0.0758522563

VECTORS	v 	float 
0.0	0.0	0.0
0.0223372791	0.0	0.0
0.0446745581	0.0	0.0
0.0	0.0178698232	0.0
0.0223372791	0.0178698232	0.0
0.0446745581	0.0178698232	0.0
0.0	0.0357396465	0.0
0.0223372791	0.0357396465	0.0
0.0446745581	0.0357396465	0.0
0.0	-0.0	-0.077019218
0.0223372791	0.0	-0.077019218
0.0446745581	0.0	-0.077019218
-0.0	0.0178698232	-0.077019218
0.0223372791	0.0178698232	-0.077019218
0.0446745581	0.0178698232	-0.077019218
-0.0	0.0357396465	-0.077019218
0.0223372791	0.0357396465	-0.077019218
0.0446745581	0.0357396465	-0.077019218
0.0	-0.0	-0.154038436
0.0223372791	0.0	-0.154038436
0.0446745581	0.0	-0.154038436
-0.0	0.0178698232	-0.154038436
0.0223372791	0.0178698232	-0.154038436
0.0446745581	0.0178698232	-0.154038436
-0.0	0.0357396465	-0.154038436
0.0223372791	0.0357396465	-0.154038436
0.0446745581	0.0357396465	-0.154038436

VECTORS	a 	float 
0.0	0.0	0.0
5.3182451542	0.0	0.0
10.6364903083	0.0	0.0
0.0	4.2545961233	0.0
5.3182451542	4.2545961233	0.0
10.6364903083	4.2545961233	0.0
0.0	8.5091922467	0.0
5.3182451542	8.5091922467	0.0
10.6364903083	8.5091922467	0.0
0.0	-0.0	-18.3281451141
5.3182451542	0.0	-18.3281451141
10.6364903083	-0.0	-18.3281451141
-0.0	4.2545961233	-18.3281451141
5.3182451542	4.2545961233	-18.3281451141
10.6364903083	4.2545961233	-18.3281451141
-0.0	8.5091922467	-18.3281451141
5.3182451542	8.5091922467	-18.3281451141
10.6364903083	8.5091922467	-18.3281451141
0.0	-0.0	-36.6562902282
5.3182451542	-0.0	-36.6562902282
10.6364903083	0.0	-36.6562902282
0.0	4.2545961233	-36.6562902282
5.3182451542	4.2545961233	-36.6562902282
10.6364903083	4.2545961233	-36.6562902282
0.0	8.5091922467	-36.6562902282
5.3182451542	8.5091922467	-36.6562902282
10.6364903083	8.5091922467	-36.6562902282

SCALARS	theta	float 1
LOOKUP_TABLE	default
299.4572450948
299.4572450948
299.4572450948
299.4572450948
299.4572450948
299.4572450948
299.4572450948
299.4572450948
299.4572450948
299.4572450948
299.4572450948
299.4572450948
299.4572450948
299.4572450948
299.4572450948
299.4572450948
299.4572450948
299.4572450948
299.4572450948
299.4572450948
299.4572450948
299.4572450948
299.4572450948
299.4572450948
299.4572450948
299.4572450948
299.4572450948

SCALARS	sig_11	float	1
LOOKUP_TABLE	default
-2.3e-09
-2.3e-09
-2.3e-09
-2.3e-09
-2.3e-09
-2.3e-09
-2.3e-09
-2.3e-09
-2.4e-09
-2.3e-09
-2.3e-09
-2.3e-09
-2.3e-09
-2.3e-09
-2.3e-09
-2.3e-09
-2.3e-09
-2.3e-09
-2.3e-09
-2.3e-09
-2.3e-09
-2.3e-09
-2.3e-09
-2.4e-09
-2.3e-09
-2.3e-09
-2.3e-09

SCALARS	sig_22	float	1
LOOKUP_TABLE	default
-2.3e-09
-2.3e-09
-2.3e-09
-2.3e-09
-2.3e-09
-2.3e-09
-2.3e-09
-2.3e-09
-2.3e-09
-2.3e-09
-2.3e-09
-2.3e-09
-2.3e-09
-2.3e-09
-2.3e-09
-2.3e-09
-2.3e-09
-2.3e-09
-2.3e-09
-2.3e-09
-2.3e-09
-2.3e-09
-2.3e-09
-2.4e-09
-2.3e-09
-2.3e-09
-2.3e-09

SCALARS	sig_33	float	1
LOOKUP_TABLE	default
124.9905066293
124.9905066293
124.9905066293
124.9905066293
124.9905066293
124.9905066293
124.9905066293
124.9905066293
124.9905066293
124.9905066293
124.9905066293
124.9905066293
124.9905066293
124.9905066293
124.9905066293
124.9905066293
124.9905066293
124.9905066293
124.9905066293
124.9905066293
124.9905066293
124.9905066293
124.9905066293
124.9905066292
124.9905066293
124.9905066293
124.9905066293

SCALARS vonMises	float	1
LOOKUP_TABLE	default
88.3816348231
88.3816348231
88.3816348231
88.3816348231
88.3816348231
88.3816348231
88.3816348231
88.3816348231
88.3816348231
88.3816348231
88.3816348231
88.3816348231
88.3816348231
88.3816348231
88.3816348231
88.3816348231
88.3816348231
88.3816348231
88.3816348231
88.3816348231
88.3816348231
88.3816348231
88.3816348231
88.3816348231
88.3816348231
88.3816348231
88.3816348231
