# vtk DataFile Version 2.0
Results
ASCII
DATASET UNSTRUCTURED_GRID
POINTS         27           float
0.0	0.0	0.0	
50.0	0.0	0.0	
100.0	0.0	0.0	
0.0	40.0	0.0	
50.0	40.0	0.0	
100.0	40.0	0.0	
0.0	80.0	0.0	
50.0	80.0	0.0	
100.0	80.0	0.0	
0.0	0.0	70.0	
50.0	0.0	70.0	
100.0	0.0	70.0	
0.0	40.0	70.0	
50.0	40.0	70.0	
100.0	40.0	70.0	
0.0	80.0	70.0	
50.0	80.0	70.0	
100.0	80.0	70.0	
0.0	0.0	140.0	
50.0	0.0	140.0	
100.0	0.0	140.0	
0.0	40.0	140.0	
50.0	40.0	140.0	
100.0	40.0	140.0	
0.0	80.0	140.0	
50.0	80.0	140.0	
100.0	80.0	140.0	

CELLS	8	72
 8	0	1	4	3	9	10	13	12	
 8	1	2	5	4	10	11	14	13	
 8	4	5	8	7	13	14	17	16	
 8	3	4	7	6	12	13	16	15	
 8	9	10	13	12	18	19	22	21	
 8	10	11	14	13	19	20	23	22	
 8	13	14	17	16	22	23	26	25	
 8	12	13	16	15	21	22	25	24	

CELL_TYPES	8
 12
 12
 12
 12
 12
 12
 12
 12

POINT_DATA	27
SCALARS	u1	float 1
LOOKUP_TABLE	default
0.0
-0.012
-0.024
0.0
-0.012
-0.024
0.0
-0.012
-0.024
0.0
-0.012
-0.024
0.0
-0.012
-0.024
0.0
-0.012
-0.024
0.0
-0.012
-0.024
0.0
-0.012
-0.024
0.0
-0.012
-0.024

SCALARS	u2	float 1
LOOKUP_TABLE	default
0.0
0.0
0.0
-0.009
-0.009
-0.009
-0.019
-0.019
-0.019
0.0
0.0
0.0
-0.009
-0.009
-0.009
-0.019
-0.019
-0.019
0.0
0.0
0.0
-0.009
-0.009
-0.009
-0.019
-0.019
-0.019

SCALARS	u3	float 1
LOOKUP_TABLE	default
0.0
0.0
0.0
0.0
0.0
0.0
0.0
0.0
0.0
0.038
0.038
0.038
0.038
0.038
0.038
0.038
0.038
0.038
0.076
0.076
0.076
0.076
0.076
0.076
0.076
0.076
0.076

SCALARS	u4	float 1
LOOKUP_TABLE	default
299.433
299.433
299.433
299.433
299.433
299.433
299.433
299.433
299.433
299.433
299.433
299.433
299.433
299.433
299.433
299.433
299.433
299.433
299.433
299.433
299.433
299.433
299.433
299.433
299.433
299.433
299.433

VECTORS	u 	float 
0.0	0.0	0.0
-0.011766983	0.0	0.0
-0.023533966	0.0	0.0
0.0	-0.0094135864	0.0
-0.011766983	-0.0094135864	0.0
-0.023533966	-0.0094135864	0.0
0.0	-0.0188271728	0.0
-0.011766983	-0.0188271728	0.0
-0.023533966	-0.0188271728	0.0
0.0	0.0	0.0377558439
-0.011766983	0.0	0.0377558439
-0.023533966	0.0	0.0377558439
0.0	-0.0094135864	0.0377558439
-0.011766983	-0.0094135864	0.0377558439
-0.023533966	-0.0094135864	0.0377558439
0.0	-0.0188271728	0.0377558439
-0.011766983	-0.0188271728	0.0377558439
-0.023533966	-0.0188271728	0.0377558439
0.0	0.0	0.0755116878
-0.011766983	0.0	0.0755116878
-0.023533966	0.0	0.0755116878
0.0	-0.0094135864	0.0755116878
-0.011766983	-0.0094135864	0.0755116878
-0.023533966	-0.0094135864	0.0755116878
0.0	-0.0188271728	0.0755116878
-0.011766983	-0.0188271728	0.0755116878
-0.023533966	-0.0188271728	0.0755116878

VECTORS	v 	float 
0.0	0.0	0.0
0.0223371263	0.0	0.0
0.0446742526	0.0	0.0
0.0	0.017869701	0.0
0.0223371263	0.017869701	0.0
0.0446742526	0.017869701	0.0
0.0	0.035739402	0.0
0.0223371263	0.035739402	0.0
0.0446742526	0.035739402	0.0
0.0	0.0	-0.0770194324
0.0223371263	0.0	-0.0770194324
0.0446742526	0.0	-0.0770194324
-0.0	0.017869701	-0.0770194324
0.0223371263	0.017869701	-0.0770194324
0.0446742526	0.017869701	-0.0770194324
-0.0	0.035739402	-0.0770194324
0.0223371263	0.035739402	-0.0770194324
0.0446742526	0.035739402	-0.0770194324
0.0	-0.0	-0.1540388648
0.0223371263	0.0	-0.1540388648
0.0446742526	0.0	-0.1540388648
0.0	0.017869701	-0.1540388648
0.0223371263	0.017869701	-0.1540388648
0.0446742526	0.017869701	-0.1540388648
0.0	0.035739402	-0.1540388648
0.0223371263	0.035739402	-0.1540388648
0.0446742526	0.035739402	-0.1540388648

VECTORS	a 	float 
0.0	0.0	0.0
6.748312535	0.0	0.0
13.49662507	0.0	0.0
0.0	5.398650028	0.0
6.748312535	5.398650028	0.0
13.49662507	5.398650028	0.0
0.0	10.797300056	0.0
6.748312535	10.797300056	0.0
13.49662507	10.797300056	0.0
0.0	-0.0	-23.2567004246
6.748312535	0.0	-23.2567004246
13.49662507	0.0	-23.2567004246
-0.0	5.398650028	-23.2567004246
6.748312535	5.398650028	-23.2567004246
13.49662507	5.398650028	-23.2567004246
-0.0	10.797300056	-23.2567004246
6.748312535	10.797300056	-23.2567004246
13.49662507	10.797300056	-23.2567004246
0.0	-0.0	-46.5134008492
6.748312535	-0.0	-46.5134008492
13.49662507	0.0	-46.5134008492
0.0	5.398650028	-46.5134008492
6.748312535	5.398650028	-46.5134008492
13.49662507	5.398650028	-46.5134008492
0.0	10.797300056	-46.5134008492
6.748312535	10.797300056	-46.5134008492
13.49662507	10.797300056	-46.5134008492

SCALARS	theta	float 1
LOOKUP_TABLE	default
299.4329181991
299.4329181991
299.4329181991
299.4329181991
299.4329181991
299.4329181991
299.4329181991
299.4329181991
299.4329181991
299.4329181991
299.4329181991
299.4329181991
299.4329181991
299.4329181991
299.4329181991
299.4329181991
299.4329181991
299.4329181991
299.4329181991
299.4329181991
299.4329181991
299.4329181991
299.4329181991
299.4329181991
299.4329181991
299.4329181991
299.4329181991

SCALARS	sig_11	float	1
LOOKUP_TABLE	default
-2.4e-09
-2.4e-09
-2.4e-09
-2.4e-09
-2.4e-09
-2.4e-09
-2.4e-09
-2.4e-09
-2.4e-09
-2.4e-09
-2.4e-09
-2.4e-09
-2.4e-09
-2.4e-09
-2.4e-09
-2.4e-09
-2.4e-09
-2.4e-09
-2.4e-09
-2.4e-09
-2.4e-09
-2.4e-09
-2.4e-09
-2.4e-09
-2.4e-09
-2.4e-09
-2.4e-09

SCALARS	sig_22	float	1
LOOKUP_TABLE	default
-2.4e-09
-2.4e-09
-2.4e-09
-2.4e-09
-2.4e-09
-2.4e-09
-2.4e-09
-2.4e-09
-2.4e-09
-2.4e-09
-2.4e-09
-2.4e-09
-2.4e-09
-2.4e-09
-2.4e-09
-2.4e-09
-2.4e-09
-2.4e-09
-2.4e-09
-2.4e-09
-2.4e-09
-2.4e-09
-2.4e-09
-2.4e-09
-2.4e-09
-2.4e-09
-2.4e-09

SCALARS	sig_33	float	1
LOOKUP_TABLE	default
124.9914184528
124.9914184528
124.9914184528
124.9914184528
124.9914184528
124.9914184528
124.9914184528
124.9914184528
124.9914184528
124.9914184528
124.9914184528
124.9914184528
124.9914184528
124.9914184528
124.9914184528
124.9914184528
124.9914184528
124.9914184528
124.9914184528
124.9914184528
124.9914184528
124.9914184528
124.9914184528
124.9914184528
124.9914184528
124.9914184528
124.9914184528

SCALARS vonMises	float	1
LOOKUP_TABLE	default
88.3822795797
88.3822795797
88.3822795797
88.3822795797
88.3822795797
88.3822795797
88.3822795797
88.3822795797
88.3822795797
88.3822795797
88.3822795797
88.3822795797
88.3822795797
88.3822795797
88.3822795797
88.3822795797
88.3822795797
88.3822795797
88.3822795797
88.3822795797
88.3822795797
88.3822795797
88.3822795797
88.3822795797
88.3822795797
88.3822795797
88.3822795797
