# vtk DataFile Version 2.0
Results
ASCII
DATASET UNSTRUCTURED_GRID
POINTS         27           float
0.0	0.0	0.0	
50.0	0.0	0.0	
100.0	0.0	0.0	
0.0	40.0	0.0	
50.0	40.0	0.0	
100.0	40.0	0.0	
0.0	80.0	0.0	
50.0	80.0	0.0	
100.0	80.0	0.0	
0.0	0.0	70.0	
50.0	0.0	70.0	
100.0	0.0	70.0	
0.0	40.0	70.0	
50.0	40.0	70.0	
100.0	40.0	70.0	
0.0	80.0	70.0	
50.0	80.0	70.0	
100.0	80.0	70.0	
0.0	0.0	140.0	
50.0	0.0	140.0	
100.0	0.0	140.0	
0.0	40.0	140.0	
50.0	40.0	140.0	
100.0	40.0	140.0	
0.0	80.0	140.0	
50.0	80.0	140.0	
100.0	80.0	140.0	

CELLS	8	72
 8	0	1	4	3	9	10	13	12	
 8	1	2	5	4	10	11	14	13	
 8	4	5	8	7	13	14	17	16	
 8	3	4	7	6	12	13	16	15	
 8	9	10	13	12	18	19	22	21	
 8	10	11	14	13	19	20	23	22	
 8	13	14	17	16	22	23	26	25	
 8	12	13	16	15	21	22	25	24	

CELL_TYPES	8
 12
 12
 12
 12
 12
 12
 12
 12

POINT_DATA	27
SCALARS	u1	float 1
LOOKUP_TABLE	default
0.0
-0.011
-0.023
0.0
-0.011
-0.023
0.0
-0.011
-0.023
-0.0
-0.011
-0.023
0.0
-0.011
-0.023
0.0
-0.011
-0.023
0.0
-0.011
-0.023
0.0
-0.011
-0.023
0.0
-0.011
-0.023

SCALARS	u2	float 1
LOOKUP_TABLE	default
0.0
0.0
0.0
-0.009
-0.009
-0.009
-0.018
-0.018
-0.018
0.0
-0.0
-0.0
-0.009
-0.009
-0.009
-0.018
-0.018
-0.018
0.0
0.0
-0.0
-0.009
-0.009
-0.009
-0.018
-0.018
-0.018

SCALARS	u3	float 1
LOOKUP_TABLE	default
0.0
0.0
0.0
0.0
0.0
0.0
0.0
0.0
0.0
0.038
0.038
0.038
0.038
0.038
0.038
0.038
0.038
0.038
0.077
0.077
0.077
0.077
0.077
0.077
0.077
0.077
0.077

SCALARS	u4	float 1
LOOKUP_TABLE	default
299.504
299.504
299.504
299.504
299.504
299.504
299.504
299.504
299.504
299.504
299.504
299.504
299.504
299.504
299.504
299.504
299.504
299.504
299.504
299.504
299.504
299.504
299.504
299.504
299.504
299.504
299.504

VECTORS	u 	float 
0.0	0.0	0.0
-0.0114096734	0.0	0.0
-0.0228193469	0.0	0.0
0.0	-0.0091277387	0.0
-0.0114096734	-0.0091277387	0.0
-0.0228193469	-0.0091277387	0.0
0.0	-0.0182554775	0.0
-0.0114096734	-0.0182554775	0.0
-0.0228193469	-0.0182554775	0.0
-0.0	0.0	0.0382560765
-0.0114096734	-0.0	0.0382560765
-0.0228193469	-0.0	0.0382560765
0.0	-0.0091277387	0.0382560765
-0.0114096734	-0.0091277387	0.0382560765
-0.0228193469	-0.0091277387	0.0382560765
0.0	-0.0182554775	0.0382560765
-0.0114096734	-0.0182554775	0.0382560765
-0.0228193469	-0.0182554775	0.0382560765
0.0	0.0	0.0765121531
-0.0114096734	0.0	0.0765121531
-0.0228193469	-0.0	0.0765121531
0.0	-0.0091277387	0.0765121531
-0.0114096734	-0.0091277387	0.0765121531
-0.0228193469	-0.0091277387	0.0765121531
0.0	-0.0182554775	0.0765121531
-0.0114096734	-0.0182554775	0.0765121531
-0.0228193469	-0.0182554775	0.0765121531

VECTORS	v 	float 
0.0	0.0	0.0
-0.0223527765	0.0	0.0
-0.044705553	0.0	0.0
0.0	-0.0178822212	0.0
-0.0223527765	-0.0178822212	0.0
-0.044705553	-0.0178822212	0.0
0.0	-0.0357644424	0.0
-0.0223527765	-0.0357644424	0.0
-0.044705553	-0.0357644424	0.0
-0.0	0.0	0.0769975041
-0.0223527765	0.0	0.0769975041
-0.044705553	0.0	0.0769975041
-0.0	-0.0178822212	0.0769975041
-0.0223527765	-0.0178822212	0.0769975041
-0.044705553	-0.0178822212	0.0769975041
0.0	-0.0357644424	0.0769975041
-0.0223527765	-0.0357644424	0.0769975041
-0.044705553	-0.0357644424	0.0769975041
-0.0	0.0	0.1539950082
-0.0223527765	0.0	0.1539950082
-0.044705553	-0.0	0.1539950082
0.0	-0.0178822212	0.1539950082
-0.0223527765	-0.0178822212	0.1539950082
-0.044705553	-0.0178822212	0.1539950082
0.0	-0.0357644424	0.1539950082
-0.0223527765	-0.0357644424	0.1539950082
-0.044705553	-0.0357644424	0.1539950082

VECTORS	a 	float 
0.0	0.0	0.0
-2.5474617378	0.0	0.0
-5.0949234757	0.0	0.0
0.0	-2.0379693903	0.0
-2.5474617378	-2.0379693903	0.0
-5.0949234757	-2.0379693903	0.0
0.0	-4.0759387805	0.0
-2.5474617378	-4.0759387805	0.0
-5.0949234757	-4.0759387805	0.0
-0.0	0.0	8.7791083069
-2.5474617378	-0.0	8.7791083069
-5.0949234757	0.0	8.7791083069
-0.0	-2.0379693903	8.7791083069
-2.5474617378	-2.0379693903	8.7791083069
-5.0949234757	-2.0379693903	8.7791083069
0.0	-4.0759387805	8.7791083069
-2.5474617378	-4.0759387805	8.7791083069
-5.0949234757	-4.0759387805	8.7791083069
-0.0	0.0	17.5582166138
-2.5474617378	0.0	17.5582166138
-5.0949234757	-0.0	17.5582166138
-0.0	-2.0379693903	17.5582166138
-2.5474617378	-2.0379693903	17.5582166138
-5.0949234757	-2.0379693903	17.5582166138
0.0	-4.0759387805	17.5582166138
-2.5474617378	-4.0759387805	17.5582166138
-5.0949234757	-4.0759387805	17.5582166138

SCALARS	theta	float 1
LOOKUP_TABLE	default
299.5043812865
299.5043812865
299.5043812865
299.5043812865
299.5043812865
299.5043812865
299.5043812865
299.5043812865
299.5043812865
299.5043812865
299.5043812865
299.5043812865
299.5043812865
299.5043812865
299.5043812865
299.5043812865
299.5043812865
299.5043812865
299.5043812865
299.5043812865
299.5043812865
299.5043812865
299.5043812865
299.5043812865
299.5043812865
299.5043812865
299.5043812865

SCALARS	sig_11	float	1
LOOKUP_TABLE	default
-2.3e-09
-2.3e-09
-2.3e-09
-2.3e-09
-2.3e-09
-2.3e-09
-2.3e-09
-2.3e-09
-2.3e-09
-2.3e-09
-2.3e-09
-2.3e-09
-2.3e-09
-2.3e-09
-2.3e-09
-2.3e-09
-2.3e-09
-2.3e-09
-2.3e-09
-2.3e-09
-2.3e-09
-2.3e-09
-2.3e-09
-2.3e-09
-2.3e-09
-2.3e-09
-2.3e-09

SCALARS	sig_22	float	1
LOOKUP_TABLE	default
-2.3e-09
-2.3e-09
-2.3e-09
-2.3e-09
-2.3e-09
-2.3e-09
-2.3e-09
-2.3e-09
-2.3e-09
-2.3e-09
-2.3e-09
-2.3e-09
-2.3e-09
-2.3e-09
-2.3e-09
-2.3e-09
-2.3e-09
-2.3e-09
-2.3e-09
-2.3e-09
-2.3e-09
-2.3e-09
-2.3e-09
-2.3e-09
-2.3e-09
-2.3e-09
-2.3e-09

SCALARS	sig_33	float	1
LOOKUP_TABLE	default
124.9887399556
124.9887399556
124.9887399556
124.9887399556
124.9887399556
124.9887399556
124.9887399556
124.9887399556
124.9887399556
124.9887399556
124.9887399556
124.9887399556
124.9887399556
124.9887399556
124.9887399556
124.9887399556
124.9887399556
124.9887399556
124.9887399556
124.9887399556
124.9887399556
124.9887399556
124.9887399556
124.9887399556
124.9887399556
124.9887399556
124.9887399556

SCALARS vonMises	float	1
LOOKUP_TABLE	default
88.3803855962
88.3803855962
88.3803855962
88.3803855962
88.3803855962
88.3803855962
88.3803855962
88.3803855962
88.3803855962
88.3803855962
88.3803855962
88.3803855962
88.3803855962
88.3803855962
88.3803855962
88.3803855962
88.3803855962
88.3803855962
88.3803855962
88.3803855962
88.3803855962
88.3803855962
88.3803855962
88.3803855962
88.3803855962
88.3803855962
88.3803855962
