# vtk DataFile Version 2.0
Results
ASCII
DATASET UNSTRUCTURED_GRID
POINTS         27           float
0.0	0.0	0.0	
50.0	0.0	0.0	
100.0	0.0	0.0	
0.0	40.0	0.0	
50.0	40.0	0.0	
100.0	40.0	0.0	
0.0	80.0	0.0	
50.0	80.0	0.0	
100.0	80.0	0.0	
0.0	0.0	70.0	
50.0	0.0	70.0	
100.0	0.0	70.0	
0.0	40.0	70.0	
50.0	40.0	70.0	
100.0	40.0	70.0	
0.0	80.0	70.0	
50.0	80.0	70.0	
100.0	80.0	70.0	
0.0	0.0	140.0	
50.0	0.0	140.0	
100.0	0.0	140.0	
0.0	40.0	140.0	
50.0	40.0	140.0	
100.0	40.0	140.0	
0.0	80.0	140.0	
50.0	80.0	140.0	
100.0	80.0	140.0	

CELLS	8	72
 8	0	1	4	3	9	10	13	12	
 8	1	2	5	4	10	11	14	13	
 8	4	5	8	7	13	14	17	16	
 8	3	4	7	6	12	13	16	15	
 8	9	10	13	12	18	19	22	21	
 8	10	11	14	13	19	20	23	22	
 8	13	14	17	16	22	23	26	25	
 8	12	13	16	15	21	22	25	24	

CELL_TYPES	8
 12
 12
 12
 12
 12
 12
 12
 12

POINT_DATA	27
SCALARS	u1	float 1
LOOKUP_TABLE	default
0.0
-0.012
-0.024
0.0
-0.012
-0.024
0.0
-0.012
-0.024
-0.0
-0.012
-0.024
-0.0
-0.012
-0.024
-0.0
-0.012
-0.024
-0.0
-0.012
-0.024
-0.0
-0.012
-0.024
-0.0
-0.012
-0.024

SCALARS	u2	float 1
LOOKUP_TABLE	default
0.0
0.0
0.0
-0.009
-0.009
-0.009
-0.019
-0.019
-0.019
0.0
0.0
0.0
-0.009
-0.009
-0.009
-0.019
-0.019
-0.019
0.0
0.0
0.0
-0.009
-0.009
-0.009
-0.019
-0.019
-0.019

SCALARS	u3	float 1
LOOKUP_TABLE	default
0.0
0.0
0.0
0.0
0.0
0.0
0.0
0.0
0.0
0.038
0.038
0.038
0.038
0.038
0.038
0.038
0.038
0.038
0.075
0.075
0.075
0.075
0.075
0.075
0.075
0.075
0.075

SCALARS	u4	float 1
LOOKUP_TABLE	default
299.422
299.422
299.422
299.422
299.422
299.422
299.422
299.422
299.422
299.422
299.422
299.422
299.422
299.422
299.422
299.422
299.422
299.422
299.422
299.422
299.422
299.422
299.422
299.422
299.422
299.422
299.422

VECTORS	u 	float 
0.0	0.0	0.0
-0.0118201906	0.0	0.0
-0.0236403812	0.0	0.0
0.0	-0.0094561525	0.0
-0.0118201906	-0.0094561525	0.0
-0.0236403812	-0.0094561525	0.0
0.0	-0.0189123049	0.0
-0.0118201906	-0.0189123049	0.0
-0.0236403812	-0.0189123049	0.0
-0.0	0.0	0.0376813534
-0.0118201906	0.0	0.0376813534
-0.0236403812	0.0	0.0376813534
-0.0	-0.0094561525	0.0376813534
-0.0118201906	-0.0094561525	0.0376813534
-0.0236403812	-0.0094561525	0.0376813534
-0.0	-0.0189123049	0.0376813534
-0.0118201906	-0.0189123049	0.0376813534
-0.0236403812	-0.0189123049	0.0376813534
-0.0	0.0	0.0753627068
-0.0118201906	0.0	0.0753627068
-0.0236403812	0.0	0.0753627068
-0.0	-0.0094561525	0.0753627068
-0.0118201906	-0.0094561525	0.0753627068
-0.0236403812	-0.0094561525	0.0753627068
-0.0	-0.0189123049	0.0753627068
-0.0118201906	-0.0189123049	0.0753627068
-0.0236403812	-0.0189123049	0.0753627068

VECTORS	v 	float 
0.0	0.0	0.0
-0.0223522593	0.0	0.0
-0.0447045186	0.0	0.0
0.0	-0.0178818074	0.0
-0.0223522593	-0.0178818074	0.0
-0.0447045186	-0.0178818075	0.0
0.0	-0.0357636149	0.0
-0.0223522593	-0.0357636149	0.0
-0.0447045186	-0.0357636149	0.0
-0.0	-0.0	0.0769982299
-0.0223522593	-0.0	0.0769982299
-0.0447045186	-0.0	0.0769982299
0.0	-0.0178818074	0.0769982299
-0.0223522593	-0.0178818075	0.0769982299
-0.0447045186	-0.0178818075	0.0769982299
0.0	-0.0357636149	0.0769982299
-0.0223522593	-0.0357636149	0.0769982299
-0.0447045186	-0.0357636149	0.0769982299
-0.0	0.0	0.1539964598
-0.0223522593	-0.0	0.1539964598
-0.0447045186	-0.0	0.1539964598
-0.0	-0.0178818074	0.1539964598
-0.0223522593	-0.0178818075	0.1539964598
-0.0447045186	-0.0178818075	0.1539964598
-0.0	-0.0357636149	0.1539964598
-0.0223522593	-0.0357636149	0.1539964598
-0.0447045186	-0.0357636149	0.1539964598

VECTORS	a 	float 
0.0	0.0	0.0
-7.3739639346	0.0	0.0
-14.7479278693	0.0	0.0
0.0	-5.8991711477	0.0
-7.3739639346	-5.8991711477	0.0
-14.7479278692	-5.8991711477	0.0
0.0	-11.7983422954	0.0
-7.3739639346	-11.7983422954	0.0
-14.7479278692	-11.7983422954	0.0
-0.0	0.0	25.4129476947
-7.3739639346	-0.0	25.4129476947
-14.7479278692	-0.0	25.4129476947
0.0	-5.8991711477	25.4129476947
-7.3739639346	-5.8991711477	25.4129476947
-14.7479278692	-5.8991711477	25.4129476947
0.0	-11.7983422954	25.4129476947
-7.3739639346	-11.7983422954	25.4129476947
-14.7479278693	-11.7983422954	25.4129476947
-0.0	0.0	50.8258953893
-7.3739639346	-0.0	50.8258953893
-14.7479278693	-0.0	50.8258953893
-0.0	-5.8991711477	50.8258953893
-7.3739639346	-5.8991711477	50.8258953893
-14.7479278693	-5.8991711477	50.8258953893
-0.0	-11.7983422954	50.8258953893
-7.3739639346	-11.7983422954	50.8258953893
-14.7479278693	-11.7983422954	50.8258953893

SCALARS	theta	float 1
LOOKUP_TABLE	default
299.4222763989
299.4222763989
299.4222763989
299.4222763989
299.4222763989
299.4222763989
299.4222763989
299.4222763989
299.4222763989
299.4222763989
299.4222763989
299.4222763989
299.4222763989
299.4222763989
299.4222763989
299.4222763989
299.4222763989
299.4222763989
299.4222763989
299.4222763989
299.4222763989
299.4222763989
299.4222763989
299.4222763989
299.4222763989
299.4222763989
299.4222763989

SCALARS	sig_11	float	1
LOOKUP_TABLE	default
-2.3e-09
-2.3e-09
-2.3e-09
-2.3e-09
-2.3e-09
-2.3e-09
-2.3e-09
-2.3e-09
-2.3e-09
-2.3e-09
-2.3e-09
-2.3e-09
-2.3e-09
-2.3e-09
-2.3e-09
-2.3e-09
-2.3e-09
-2.3e-09
-2.3e-09
-2.3e-09
-2.3e-09
-2.3e-09
-2.3e-09
-2.3e-09
-2.3e-09
-2.3e-09
-2.3e-09

SCALARS	sig_22	float	1
LOOKUP_TABLE	default
-2.3e-09
-2.3e-09
-2.3e-09
-2.3e-09
-2.3e-09
-2.3e-09
-2.3e-09
-2.3e-09
-2.3e-09
-2.3e-09
-2.3e-09
-2.3e-09
-2.3e-09
-2.3e-09
-2.3e-09
-2.3e-09
-2.3e-09
-2.3e-09
-2.3e-09
-2.3e-09
-2.3e-09
-2.3e-09
-2.3e-09
-2.3e-09
-2.3e-09
-2.3e-09
-2.3e-09

SCALARS	sig_33	float	1
LOOKUP_TABLE	default
124.9918174077
124.9918174077
124.9918174078
124.9918174077
124.9918174077
124.9918174078
124.9918174077
124.9918174078
124.9918174078
124.9918174077
124.9918174077
124.9918174077
124.9918174077
124.9918174077
124.9918174077
124.9918174078
124.9918174078
124.9918174078
124.9918174077
124.9918174077
124.9918174077
124.9918174078
124.9918174078
124.9918174077
124.9918174078
124.9918174078
124.9918174078

SCALARS vonMises	float	1
LOOKUP_TABLE	default
88.3825616835
88.3825616835
88.3825616835
88.3825616835
88.3825616835
88.3825616835
88.3825616835
88.3825616835
88.3825616835
88.3825616835
88.3825616835
88.3825616835
88.3825616835
88.3825616835
88.3825616835
88.3825616835
88.3825616835
88.3825616835
88.3825616835
88.3825616835
88.3825616835
88.3825616835
88.3825616835
88.3825616835
88.3825616835
88.3825616835
88.3825616835
