# vtk DataFile Version 2.0
Results
ASCII
DATASET UNSTRUCTURED_GRID
POINTS         27           float
0.0	0.0	0.0	
50.0	0.0	0.0	
100.0	0.0	0.0	
0.0	40.0	0.0	
50.0	40.0	0.0	
100.0	40.0	0.0	
0.0	80.0	0.0	
50.0	80.0	0.0	
100.0	80.0	0.0	
0.0	0.0	70.0	
50.0	0.0	70.0	
100.0	0.0	70.0	
0.0	40.0	70.0	
50.0	40.0	70.0	
100.0	40.0	70.0	
0.0	80.0	70.0	
50.0	80.0	70.0	
100.0	80.0	70.0	
0.0	0.0	140.0	
50.0	0.0	140.0	
100.0	0.0	140.0	
0.0	40.0	140.0	
50.0	40.0	140.0	
100.0	40.0	140.0	
0.0	80.0	140.0	
50.0	80.0	140.0	
100.0	80.0	140.0	

CELLS	8	72
 8	0	1	4	3	9	10	13	12	
 8	1	2	5	4	10	11	14	13	
 8	4	5	8	7	13	14	17	16	
 8	3	4	7	6	12	13	16	15	
 8	9	10	13	12	18	19	22	21	
 8	10	11	14	13	19	20	23	22	
 8	13	14	17	16	22	23	26	25	
 8	12	13	16	15	21	22	25	24	

CELL_TYPES	8
 12
 12
 12
 12
 12
 12
 12
 12

POINT_DATA	27
SCALARS	u1	float 1
LOOKUP_TABLE	default
0.0
-0.012
-0.023
0.0
-0.012
-0.023
0.0
-0.012
-0.023
0.0
-0.012
-0.023
0.0
-0.012
-0.023
0.0
-0.012
-0.023
0.0
-0.012
-0.023
0.0
-0.012
-0.023
0.0
-0.012
-0.023

SCALARS	u2	float 1
LOOKUP_TABLE	default
0.0
0.0
0.0
-0.009
-0.009
-0.009
-0.018
-0.018
-0.018
-0.0
-0.0
-0.0
-0.009
-0.009
-0.009
-0.018
-0.018
-0.018
-0.0
-0.0
-0.0
-0.009
-0.009
-0.009
-0.018
-0.018
-0.018

SCALARS	u3	float 1
LOOKUP_TABLE	default
0.0
0.0
0.0
0.0
0.0
0.0
0.0
0.0
0.0
0.038
0.038
0.038
0.038
0.038
0.038
0.038
0.038
0.038
0.076
0.076
0.076
0.076
0.076
0.076
0.076
0.076
0.076

SCALARS	u4	float 1
LOOKUP_TABLE	default
299.477
299.477
299.477
299.477
299.477
299.477
299.477
299.477
299.477
299.477
299.477
299.477
299.477
299.477
299.477
299.477
299.477
299.477
299.477
299.477
299.477
299.477
299.477
299.477
299.477
299.477
299.477

VECTORS	u 	float 
0.0	0.0	0.0
-0.0115465174	0.0	0.0
-0.0230930348	0.0	0.0
0.0	-0.0092372139	0.0
-0.0115465174	-0.0092372139	0.0
-0.0230930348	-0.0092372139	0.0
0.0	-0.0184744279	0.0
-0.0115465174	-0.0184744279	0.0
-0.0230930348	-0.0184744279	0.0
0.0	-0.0	0.0380644952
-0.0115465174	-0.0	0.0380644952
-0.0230930348	-0.0	0.0380644952
0.0	-0.0092372139	0.0380644952
-0.0115465174	-0.0092372139	0.0380644952
-0.0230930348	-0.0092372139	0.0380644952
0.0	-0.0184744279	0.0380644952
-0.0115465174	-0.0184744279	0.0380644952
-0.0230930348	-0.0184744279	0.0380644952
0.0	-0.0	0.0761289905
-0.0115465174	-0.0	0.0761289905
-0.0230930348	-0.0	0.0761289905
0.0	-0.0092372139	0.0761289905
-0.0115465174	-0.0092372139	0.0761289905
-0.0230930348	-0.0092372139	0.0761289905
0.0	-0.0184744279	0.0761289905
-0.0115465174	-0.0184744279	0.0761289905
-0.0230930348	-0.0184744279	0.0761289905

VECTORS	v 	float 
0.0	0.0	0.0
-0.0223526041	0.0	0.0
-0.0447052082	0.0	0.0
0.0	-0.0178820833	0.0
-0.0223526041	-0.0178820833	0.0
-0.0447052082	-0.0178820833	0.0
0.0	-0.0357641666	0.0
-0.0223526041	-0.0357641666	0.0
-0.0447052082	-0.0357641666	0.0
-0.0	0.0	0.076997746
-0.0223526041	-0.0	0.076997746
-0.0447052082	0.0	0.076997746
0.0	-0.0178820833	0.076997746
-0.0223526041	-0.0178820833	0.076997746
-0.0447052082	-0.0178820833	0.076997746
0.0	-0.0357641666	0.076997746
-0.0223526041	-0.0357641666	0.076997746
-0.0447052082	-0.0357641666	0.076997746
-0.0	0.0	0.153995492
-0.0223526041	0.0	0.153995492
-0.0447052082	-0.0	0.153995492
-0.0	-0.0178820833	0.153995492
-0.0223526041	-0.0178820833	0.153995492
-0.0447052082	-0.0178820833	0.153995492
-0.0	-0.0357641666	0.153995492
-0.0223526041	-0.0357641666	0.153995492
-0.0447052082	-0.0357641666	0.153995492

VECTORS	a 	float 
0.0	0.0	0.0
-4.1563081967	0.0	0.0
-8.3126163934	0.0	0.0
0.0	-3.3250465574	0.0
-4.1563081967	-3.3250465574	0.0
-8.3126163934	-3.3250465574	0.0
0.0	-6.6500931147	0.0
-4.1563081967	-6.6500931147	0.0
-8.3126163934	-6.6500931147	0.0
-0.0	0.0	14.3237040436
-4.1563081967	-0.0	14.3237040436
-8.3126163934	0.0	14.3237040436
0.0	-3.3250465574	14.3237040436
-4.1563081967	-3.3250465574	14.3237040436
-8.3126163934	-3.3250465574	14.3237040436
0.0	-6.6500931147	14.3237040436
-4.1563081967	-6.6500931147	14.3237040436
-8.3126163934	-6.6500931147	14.3237040436
-0.0	0.0	28.6474080871
-4.1563081967	0.0	28.6474080871
-8.3126163934	-0.0	28.6474080871
-0.0	-3.3250465573	28.6474080871
-4.1563081967	-3.3250465574	28.6474080871
-8.3126163934	-3.3250465574	28.6474080871
0.0	-6.6500931147	28.6474080871
-4.1563081967	-6.6500931147	28.6474080871
-8.3126163934	-6.6500931147	28.6474080871

SCALARS	theta	float 1
LOOKUP_TABLE	default
299.4770121832
299.4770121832
299.4770121832
299.4770121832
299.4770121832
299.4770121832
299.4770121832
299.4770121832
299.4770121832
299.4770121832
299.4770121832
299.4770121832
299.4770121832
299.4770121832
299.4770121832
299.4770121832
299.4770121832
299.4770121832
299.4770121832
299.4770121832
299.4770121832
299.4770121832
299.4770121832
299.4770121832
299.4770121832
299.4770121832
299.4770121832

SCALARS	sig_11	float	1
LOOKUP_TABLE	default
-2.3e-09
-2.3e-09
-2.3e-09
-2.3e-09
-2.3e-09
-2.3e-09
-2.3e-09
-2.3e-09
-2.3e-09
-2.3e-09
-2.3e-09
-2.3e-09
-2.4e-09
-2.3e-09
-2.3e-09
-2.4e-09
-2.3e-09
-2.3e-09
-2.3e-09
-2.3e-09
-2.3e-09
-2.4e-09
-2.4e-09
-2.4e-09
-2.4e-09
-2.4e-09
-2.4e-09

SCALARS	sig_22	float	1
LOOKUP_TABLE	default
-2.3e-09
-2.3e-09
-2.3e-09
-2.3e-09
-2.3e-09
-2.3e-09
-2.3e-09
-2.3e-09
-2.3e-09
-2.3e-09
-2.3e-09
-2.3e-09
-2.4e-09
-2.3e-09
-2.3e-09
-2.4e-09
-2.3e-09
-2.3e-09
-2.3e-09
-2.3e-09
-2.3e-09
-2.4e-09
-2.4e-09
-2.4e-09
-2.4e-09
-2.4e-09
-2.4e-09

SCALARS	sig_33	float	1
LOOKUP_TABLE	default
124.9897657968
124.9897657969
124.9897657969
124.9897657968
124.9897657969
124.9897657969
124.9897657968
124.9897657969
124.9897657969
124.9897657968
124.9897657969
124.9897657969
124.9897657968
124.9897657969
124.9897657969
124.9897657968
124.9897657968
124.9897657969
124.9897657968
124.9897657968
124.9897657968
124.9897657968
124.9897657968
124.9897657968
124.9897657968
124.9897657968
124.9897657968

SCALARS vonMises	float	1
LOOKUP_TABLE	default
88.3811109755
88.3811109755
88.3811109755
88.3811109755
88.3811109755
88.3811109755
88.3811109755
88.3811109755
88.3811109755
88.3811109755
88.3811109755
88.3811109755
88.3811109755
88.3811109755
88.3811109755
88.3811109755
88.3811109755
88.3811109755
88.3811109755
88.3811109755
88.3811109755
88.3811109755
88.3811109755
88.3811109755
88.3811109755
88.3811109755
88.3811109755
